# Force        
# CofR         : (0.0000000e+000 0.0000000e+000 0.0000000e+000)
#
# Time         	(total_x total_y total_z)	(pressure_x pressure_y pressure_z)	(viscous_x viscous_y viscous_z)
0.000119904    	(8.0864430e+004 -5.9265815e+004 4.9063903e+004)	(8.0847630e+004 -5.9265906e+004 4.9063913e+004)	(1.6800289e+001 9.1652783e-002 -1.0213147e-002)
0.000263651    	(1.9104935e+003 -1.8203721e+003 2.8364199e+003)	(1.8938524e+003 -1.8205439e+003 2.8364823e+003)	(1.6641012e+001 1.7183818e-001 -6.2314132e-002)
0.000436346    	(9.0745367e+002 -1.2250813e+003 2.2442831e+003)	(8.9095701e+002 -1.2252932e+003 2.2443607e+003)	(1.6496663e+001 2.1183721e-001 -7.7555069e-002)
0.000643726    	(4.9885762e+002 -9.8319735e+002 2.0173462e+003)	(4.8252957e+002 -9.8343170e+002 2.0174228e+003)	(1.6328057e+001 2.3434501e-001 -7.6673790e-002)
0.000893       	(3.4630362e+002 -8.6887948e+002 1.9053672e+003)	(3.3016349e+002 -8.6912828e+002 1.9054341e+003)	(1.6140135e+001 2.4880087e-001 -6.6844846e-002)
0.00119243     	(2.5421091e+002 -7.9048705e+002 1.8314626e+003)	(2.3828526e+002 -7.9074509e+002 1.8315135e+003)	(1.5925648e+001 2.5804029e-001 -5.0851883e-002)
0.00154869     	(1.9092796e+002 -7.3209912e+002 1.7733559e+003)	(1.7524767e+002 -7.3236262e+002 1.7733869e+003)	(1.5680295e+001 2.6350189e-001 -3.1092859e-002)
0.00196281     	(1.4556919e+002 -6.9047005e+002 1.7320164e+003)	(1.3016556e+002 -6.9073629e+002 1.7320258e+003)	(1.5403625e+001 2.6624117e-001 -9.4268552e-003)
0.00243376     	(1.0933456e+002 -6.5924920e+002 1.7005837e+003)	(9.4238536e+001 -6.5951610e+002 1.7005700e+003)	(1.5096020e+001 2.6690195e-001 1.3661232e-002)
0.00296227     	(8.1961136e+001 -6.3808144e+002 1.6796398e+003)	(6.7202631e+001 -6.3834774e+002 1.6796015e+003)	(1.4758506e+001 2.6629630e-001 3.8273136e-002)
0.00351566     	(7.3947938e+001 -6.2476183e+002 1.6645331e+003)	(5.9540920e+001 -6.2502646e+002 1.6644690e+003)	(1.4407018e+001 2.6462383e-001 6.4116108e-002)
0.00407571     	(7.0876029e+001 -6.1714475e+002 1.6544100e+003)	(5.6822940e+001 -6.1740695e+002 1.6543204e+003)	(1.4053089e+001 2.6219675e-001 8.9599541e-002)
0.00464976     	(6.9406569e+001 -6.1168587e+002 1.6465006e+003)	(5.5712151e+001 -6.1194491e+002 1.6463867e+003)	(1.3694419e+001 2.5904169e-001 1.1389956e-001)
0.00523118     	(6.8005916e+001 -6.0611334e+002 1.6382408e+003)	(5.4669683e+001 -6.0636850e+002 1.6381044e+003)	(1.3336233e+001 2.5516304e-001 1.3638720e-001)
0.00581259     	(6.6998264e+001 -6.0175996e+002 1.6316137e+003)	(5.4014849e+001 -6.0201083e+002 1.6314570e+003)	(1.2983415e+001 2.5086693e-001 1.5671337e-001)
0.00640176     	(6.6539346e+001 -5.9742408e+002 1.6250802e+003)	(5.3907542e+001 -5.9767032e+002 1.6249050e+003)	(1.2631803e+001 2.4623829e-001 1.7514357e-001)
0.00699092     	(6.5864654e+001 -5.9312520e+002 1.6188794e+003)	(5.3578538e+001 -5.9336662e+002 1.6186876e+003)	(1.2286115e+001 2.4141948e-001 1.9183241e-001)
0.00758009     	(6.5887481e+001 -5.8963523e+002 1.6135309e+003)	(5.3940823e+001 -5.8987171e+002 1.6133241e+003)	(1.1946658e+001 2.3647244e-001 2.0680715e-001)
0.00817755     	(6.5380894e+001 -5.8561237e+002 1.6077809e+003)	(5.3772156e+001 -5.8584377e+002 1.6075604e+003)	(1.1608739e+001 2.3140159e-001 2.2048616e-001)
0.00877501     	(6.5605773e+001 -5.8239407e+002 1.6027261e+003)	(5.4328625e+001 -5.8262045e+002 1.6024933e+003)	(1.1277147e+001 2.2638867e-001 2.3281782e-001)
0.00937248     	(6.5283661e+001 -5.7920790e+002 1.5979322e+003)	(5.4331869e+001 -5.7942933e+002 1.5976884e+003)	(1.0951792e+001 2.2142973e-001 2.4376966e-001)
0.00997886     	(6.5235524e+001 -5.7614695e+002 1.5933371e+003)	(5.4607274e+001 -5.7636322e+002 1.5930836e+003)	(1.0628249e+001 2.1627163e-001 2.5358514e-001)
0.0105852      	(6.4948734e+001 -5.7271245e+002 1.5881426e+003)	(5.4637439e+001 -5.7292355e+002 1.5878805e+003)	(1.0311295e+001 2.1109999e-001 2.6205299e-001)
0.0112011      	(6.5075939e+001 -5.6956181e+002 1.5829885e+003)	(5.5079671e+001 -5.6976768e+002 1.5827193e+003)	(9.9962674e+000 2.0586923e-001 2.6920631e-001)
0.011817       	(6.5129658e+001 -5.6660631e+002 1.5782846e+003)	(5.5441574e+001 -5.6680689e+002 1.5780095e+003)	(9.6880839e+000 2.0058776e-001 2.7508109e-001)
0.0124429      	(6.5236597e+001 -5.6416102e+002 1.5746803e+003)	(5.5854573e+001 -5.6435619e+002 1.5744004e+003)	(9.3820236e+000 1.9517354e-001 2.7983855e-001)
0.0130689      	(6.5057016e+001 -5.6112437e+002 1.5698813e+003)	(5.5973919e+001 -5.6131409e+002 1.5695979e+003)	(9.0830971e+000 1.8971196e-001 2.8341765e-001)
0.0136948      	(6.5178582e+001 -5.5896307e+002 1.5667298e+003)	(5.6387228e+001 -5.5914731e+002 1.5664438e+003)	(8.7913543e+000 1.8423242e-001 2.8593989e-001)
0.0143317      	(6.4872811e+001 -5.5595181e+002 1.5620081e+003)	(5.6370897e+001 -5.5613048e+002 1.5617207e+003)	(8.5019144e+000 1.7867222e-001 2.8744760e-001)
0.0149687      	(6.5104051e+001 -5.5411265e+002 1.5589826e+003)	(5.6884158e+001 -5.5428577e+002 1.5586945e+003)	(8.2198934e+000 1.7312480e-001 2.8807071e-001)
0.0156056      	(6.5042303e+001 -5.5172653e+002 1.5552926e+003)	(5.7097099e+001 -5.5189411e+002 1.5550048e+003)	(7.9452040e+000 1.6758934e-001 2.8778359e-001)
0.0162546      	(6.5010749e+001 -5.4955918e+002 1.5520543e+003)	(5.7337768e+001 -5.4972115e+002 1.5517677e+003)	(7.6729809e+000 1.6197066e-001 2.8661494e-001)
0.0169035      	(6.4988733e+001 -5.4699431e+002 1.5477518e+003)	(5.7580413e+001 -5.4715066e+002 1.5474671e+003)	(7.4083204e+000 1.5634796e-001 2.8468404e-001)
0.0175525      	(6.5091378e+001 -5.4508498e+002 1.5447592e+003)	(5.7940247e+001 -5.4523578e+002 1.5444772e+003)	(7.1511303e+000 1.5079594e-001 2.8204535e-001)
0.0182014      	(6.4935602e+001 -5.4266767e+002 1.5407533e+003)	(5.8034266e+001 -5.4281294e+002 1.5404745e+003)	(6.9013356e+000 1.4527735e-001 2.7874303e-001)
0.0188504      	(6.4977282e+001 -5.4082611e+002 1.5379277e+003)	(5.8318421e+001 -5.4096594e+002 1.5376528e+003)	(6.6588612e+000 1.3982965e-001 2.7485131e-001)
0.0194993      	(6.4691432e+001 -5.3848909e+002 1.5344156e+003)	(5.8267821e+001 -5.3862351e+002 1.5341452e+003)	(6.4236113e+000 1.3441814e-001 2.7039639e-001)
0.0201624      	(6.4572037e+001 -5.3655826e+002 1.5317516e+003)	(5.8381360e+001 -5.3668721e+002 1.5314862e+003)	(6.1906761e+000 1.2895427e-001 2.6535310e-001)
0.0208254      	(6.4426290e+001 -5.3431956e+002 1.5283770e+003)	(5.8461258e+001 -5.3444313e+002 1.5281172e+003)	(5.9650326e+000 1.2357221e-001 2.5983075e-001)
0.0214885      	(6.4379042e+001 -5.3260105e+002 1.5259406e+003)	(5.8632426e+001 -5.3271930e+002 1.5256867e+003)	(5.7466161e+000 1.1825559e-001 2.5390791e-001)
0.0221515      	(6.4238222e+001 -5.3051027e+002 1.5226981e+003)	(5.8702974e+001 -5.3062328e+002 1.5224505e+003)	(5.5352480e+000 1.1301198e-001 2.4762922e-001)
0.0228146      	(6.4172132e+001 -5.2889929e+002 1.5202925e+003)	(5.8841299e+001 -5.2900715e+002 1.5200514e+003)	(5.3308331e+000 1.0786306e-001 2.4110893e-001)
0.0234777      	(6.3846273e+001 -5.2718309e+002 1.5178583e+003)	(5.8713065e+001 -5.2728595e+002 1.5176239e+003)	(5.1332079e+000 1.0285670e-001 2.3439345e-001)
0.0241407      	(6.4036976e+001 -5.2531881e+002 1.5145636e+003)	(5.9094726e+001 -5.2541677e+002 1.5143361e+003)	(4.9422502e+000 9.7960652e-002 2.2751634e-001)
0.0248038      	(6.3978109e+001 -5.2359057e+002 1.5121074e+003)	(5.9220334e+001 -5.2368374e+002 1.5118869e+003)	(4.7577755e+000 9.3169473e-002 2.2050472e-001)
0.0254668      	(6.4103363e+001 -5.2210326e+002 1.5095495e+003)	(5.9523667e+001 -5.2219174e+002 1.5093361e+003)	(4.5796966e+000 8.8478386e-002 2.1338906e-001)
0.0261299      	(6.4207122e+001 -5.2052851e+002 1.5072863e+003)	(5.9799312e+001 -5.2061240e+002 1.5070801e+003)	(4.4078105e+000 8.3896758e-002 2.0619798e-001)
0.026793       	(6.4257326e+001 -5.1916369e+002 1.5050434e+003)	(6.0015285e+001 -5.1924311e+002 1.5048444e+003)	(4.2420409e+000 7.9412999e-002 1.9893430e-001)
0.0274755      	(6.4125527e+001 -5.1743064e+002 1.5022132e+003)	(6.0047859e+001 -5.1750554e+002 1.5020218e+003)	(4.0776673e+000 7.4901181e-002 1.9139877e-001)
0.0281581      	(6.4167760e+001 -5.1603343e+002 1.4998967e+003)	(6.0248284e+001 -5.1610393e+002 1.4997129e+003)	(3.9194760e+000 7.0494274e-002 1.8383560e-001)
0.0288406      	(6.4195893e+001 -5.1442412e+002 1.4971403e+003)	(6.0428606e+001 -5.1449031e+002 1.4969640e+003)	(3.7672861e+000 6.6195811e-002 1.7626009e-001)
0.0295232      	(6.4176338e+001 -5.1308044e+002 1.4949822e+003)	(6.0555388e+001 -5.1314247e+002 1.4948135e+003)	(3.6209496e+000 6.2025733e-002 1.6872803e-001)
0.0302293      	(6.3997632e+001 -5.1140007e+002 1.4921912e+003)	(6.0522064e+001 -5.1145793e+002 1.4920302e+003)	(3.4755678e+000 5.7858719e-002 1.6100126e-001)
0.0309354      	(6.3684064e+001 -5.0998887e+002 1.4897445e+003)	(6.0347984e+001 -5.1004272e+002 1.4895911e+003)	(3.3360801e+000 5.3845372e-002 1.5336267e-001)
0.0316415      	(6.3584361e+001 -5.0853228e+002 1.4870482e+003)	(6.0382086e+001 -5.0858226e+002 1.4869023e+003)	(3.2022747e+000 4.9983314e-002 1.4582376e-001)
0.0323758      	(6.3382647e+001 -5.0713354e+002 1.4848119e+003)	(6.0313651e+001 -5.0717968e+002 1.4846738e+003)	(3.0689959e+000 4.6137200e-002 1.3814897e-001)
0.0331102      	(6.3490349e+001 -5.0569571e+002 1.4821320e+003)	(6.0548893e+001 -5.0573818e+002 1.4820014e+003)	(2.9414557e+000 4.2461859e-002 1.3061211e-001)
0.0339144      	(6.3249940e+001 -5.0423938e+002 1.4797592e+003)	(6.0441746e+001 -5.0427801e+002 1.4796365e+003)	(2.8081933e+000 3.8627118e-002 1.2263551e-001)
0.0347611      	(6.3202542e+001 -5.0253434e+002 1.4763903e+003)	(6.0527665e+001 -5.0256911e+002 1.4762758e+003)	(2.6748776e+000 3.4774221e-002 1.1448010e-001)
0.0357135      	(6.3289666e+001 -5.0029499e+002 1.4716524e+003)	(6.0756498e+001 -5.0032558e+002 1.4715467e+003)	(2.5331682e+000 3.0591422e-002 1.0571349e-001)
0.0366064      	(6.3430048e+001 -4.9947240e+002 1.4707713e+003)	(6.1022438e+001 -4.9949916e+002 1.4706735e+003)	(2.4076099e+000 2.6755497e-002 9.7815084e-002)
0.0374993      	(6.3412702e+001 -4.9825452e+002 1.4689394e+003)	(6.1123912e+001 -4.9827784e+002 1.4688492e+003)	(2.2887896e+000 2.3320325e-002 9.0185775e-002)
0.0383327      	(6.3496886e+001 -4.9696548e+002 1.4666957e+003)	(6.1313169e+001 -4.9698586e+002 1.4666124e+003)	(2.1837171e+000 2.0380167e-002 8.3292941e-002)
0.0391105      	(6.3781872e+001 -4.9576787e+002 1.4645405e+003)	(6.1691365e+001 -4.9578567e+002 1.4644634e+003)	(2.0905069e+000 1.7801066e-002 7.7093944e-002)
0.0398883      	(6.3558402e+001 -4.9445363e+002 1.4621362e+003)	(6.1556545e+001 -4.9446899e+002 1.4620650e+003)	(2.0018569e+000 1.5356343e-002 7.1184878e-002)
0.0406661      	(6.3651029e+001 -4.9334994e+002 1.4605560e+003)	(6.1733438e+001 -4.9336296e+002 1.4604904e+003)	(1.9175907e+000 1.3025372e-002 6.5565819e-002)
0.0413841      	(6.3963994e+001 -4.9225137e+002 1.4583595e+003)	(6.2120411e+001 -4.9226236e+002 1.4582989e+003)	(1.8435833e+000 1.0981371e-002 6.0543820e-002)
0.0421021      	(6.3650852e+001 -4.9121321e+002 1.4565939e+003)	(6.1877820e+001 -4.9122223e+002 1.4565381e+003)	(1.7730325e+000 9.0293196e-003 5.5765038e-002)
0.0428201      	(6.4113262e+001 -4.8997689e+002 1.4541401e+003)	(6.2407394e+001 -4.8998404e+002 1.4540889e+003)	(1.7058676e+000 7.1521109e-003 5.1168532e-002)
0.0435381      	(6.3779882e+001 -4.8882806e+002 1.4519825e+003)	(6.2137955e+001 -4.8883343e+002 1.4519357e+003)	(1.6419274e+000 5.3692714e-003 4.6786019e-002)
0.0442561      	(6.3828316e+001 -4.8766682e+002 1.4495630e+003)	(6.2247217e+001 -4.8767049e+002 1.4495204e+003)	(1.5810994e+000 3.6634747e-003 4.2587342e-002)
0.0449741      	(6.3929361e+001 -4.8669719e+002 1.4479901e+003)	(6.2406123e+001 -4.8669923e+002 1.4479515e+003)	(1.5232375e+000 2.0365310e-003 3.8583477e-002)
0.0456921      	(6.3773803e+001 -4.8548695e+002 1.4453777e+003)	(6.2305580e+001 -4.8548745e+002 1.4453430e+003)	(1.4682238e+000 4.9602497e-004 3.4766896e-002)
0.0464101      	(6.3919865e+001 -4.8451538e+002 1.4436971e+003)	(6.2503931e+001 -4.8451441e+002 1.4436660e+003)	(1.4159339e+000 -9.6993715e-004 3.1136267e-002)
0.047128       	(6.3973726e+001 -4.8347142e+002 1.4416034e+003)	(6.2607468e+001 -4.8346905e+002 1.4415757e+003)	(1.3662579e+000 -2.3608823e-003 2.7681280e-002)
0.047846       	(6.3736095e+001 -4.8254202e+002 1.4399585e+003)	(6.2417036e+001 -4.8253834e+002 1.4399341e+003)	(1.3190584e+000 -3.6786574e-003 2.4417599e-002)
0.048564       	(6.4050008e+001 -4.8148079e+002 1.4377516e+003)	(6.2775771e+001 -4.8147586e+002 1.4377303e+003)	(1.2742366e+000 -4.9297887e-003 2.1314986e-002)
0.049282       	(6.3777930e+001 -4.8061179e+002 1.4361855e+003)	(6.2546274e+001 -4.8060569e+002 1.4361671e+003)	(1.2316561e+000 -6.1025073e-003 1.8395296e-002)
0.05           	(6.3946926e+001 -4.7954455e+002 1.4338081e+003)	(6.2755686e+001 -4.7953734e+002 1.4337925e+003)	(1.1912400e+000 -7.2082567e-003 1.5632465e-002)
0.0507937      	(6.3887674e+001 -4.7839960e+002 1.4316962e+003)	(6.2738731e+001 -4.7839123e+002 1.4316834e+003)	(1.1489424e+000 -8.3743180e-003 1.2824726e-002)
0.0516003      	(6.3700105e+001 -4.7725628e+002 1.4290100e+003)	(6.2591666e+001 -4.7724681e+002 1.4289998e+003)	(1.1084394e+000 -9.4781342e-003 1.0163915e-002)
0.0524206      	(6.3842610e+001 -4.7628910e+002 1.4272498e+003)	(6.2772923e+001 -4.7627857e+002 1.4272422e+003)	(1.0696865e+000 -1.0533804e-002 7.6395499e-003)
0.053241       	(6.3793887e+001 -4.7519107e+002 1.4249477e+003)	(6.2760617e+001 -4.7517956e+002 1.4249424e+003)	(1.0332699e+000 -1.1513969e-002 5.2737473e-003)
0.054076       	(6.4125580e+001 -4.7415619e+002 1.4229790e+003)	(6.3127117e+001 -4.7414374e+002 1.4229760e+003)	(9.9846361e-001 -1.2455740e-002 3.0242979e-003)
0.0549109      	(6.3906534e+001 -4.7301341e+002 1.4204538e+003)	(6.2940709e+001 -4.7300009e+002 1.4204529e+003)	(9.6582474e-001 -1.3318183e-002 9.3025142e-004)
0.0557617      	(6.4002967e+001 -4.7200367e+002 1.4185755e+003)	(6.3068313e+001 -4.7198953e+002 1.4185766e+003)	(9.3465416e-001 -1.4136043e-002 -1.0522639e-003)
0.0566291      	(6.3848650e+001 -4.7070833e+002 1.4154620e+003)	(6.2943736e+001 -4.7069344e+002 1.4154649e+003)	(9.0491397e-001 -1.4894083e-002 -2.9243019e-003)
0.0574965      	(6.4032593e+001 -4.6976645e+002 1.4139704e+003)	(6.3155450e+001 -4.6975087e+002 1.4139751e+003)	(8.7714343e-001 -1.5584620e-002 -4.6820763e-003)
0.058382       	(6.3804933e+001 -4.6861559e+002 1.4114892e+003)	(6.2954260e+001 -4.6859937e+002 1.4114956e+003)	(8.5067309e-001 -1.6217027e-002 -6.3345906e-003)
0.0592675      	(6.3916834e+001 -4.6757862e+002 1.4096117e+003)	(6.3090813e+001 -4.6756182e+002 1.4096196e+003)	(8.2602151e-001 -1.6800305e-002 -7.8648623e-003)
0.0601727      	(6.3825565e+001 -4.6648048e+002 1.4072690e+003)	(6.3022980e+001 -4.6646313e+002 1.4072782e+003)	(8.0258482e-001 -1.7356029e-002 -9.2739446e-003)
0.0610989      	(6.3860782e+001 -4.6540202e+002 1.4051257e+003)	(6.3080441e+001 -4.6538412e+002 1.4051363e+003)	(7.8034146e-001 -1.7903187e-002 -1.0565497e-002)
0.0620251      	(6.3806255e+001 -4.6435760e+002 1.4029355e+003)	(6.3046501e+001 -4.6433916e+002 1.4029472e+003)	(7.5975452e-001 -1.8435918e-002 -1.1706389e-002)
0.0629513      	(6.3676152e+001 -4.6334074e+002 1.4007026e+003)	(6.2935450e+001 -4.6332175e+002 1.4007153e+003)	(7.4070201e-001 -1.8981183e-002 -1.2680286e-002)
0.0638775      	(6.3707139e+001 -4.6233429e+002 1.3986664e+003)	(6.2984071e+001 -4.6231482e+002 1.3986799e+003)	(7.2306872e-001 -1.9470760e-002 -1.3574639e-002)
0.0648037      	(6.3381079e+001 -4.6087386e+002 1.3950703e+003)	(6.2674361e+001 -4.6085409e+002 1.3950848e+003)	(7.0671884e-001 -1.9774762e-002 -1.4467802e-002)
0.065755       	(6.3520922e+001 -4.5977126e+002 1.3930386e+003)	(6.2829683e+001 -4.5975121e+002 1.3930539e+003)	(6.9123887e-001 -2.0045833e-002 -1.5288511e-002)
0.0667062      	(6.3462934e+001 -4.5841577e+002 1.3897973e+003)	(6.2785891e+001 -4.5839550e+002 1.3898133e+003)	(6.7704295e-001 -2.0277782e-002 -1.6021131e-002)
0.0676575      	(6.3474464e+001 -4.5727145e+002 1.3872073e+003)	(6.2810404e+001 -4.5725098e+002 1.3872240e+003)	(6.6406006e-001 -2.0473490e-002 -1.6666060e-002)
0.0686087      	(6.3388044e+001 -4.5623550e+002 1.3851909e+003)	(6.2735843e+001 -4.5621486e+002 1.3852082e+003)	(6.5220038e-001 -2.0638861e-002 -1.7228017e-002)
0.0695897      	(6.3357621e+001 -4.5508502e+002 1.3826123e+003)	(6.2716548e+001 -4.5506423e+002 1.3826301e+003)	(6.4107243e-001 -2.0785093e-002 -1.7721612e-002)
0.0705707      	(6.3218954e+001 -4.5396377e+002 1.3802662e+003)	(6.2587950e+001 -4.5394287e+002 1.3802843e+003)	(6.3100433e-001 -2.0900821e-002 -1.8151260e-002)
0.07152        	(6.3327054e+001 -4.5287266e+002 1.3777998e+003)	(6.2704820e+001 -4.5285167e+002 1.3778184e+003)	(6.2223454e-001 -2.0992863e-002 -1.8523160e-002)
0.0724694      	(6.3341514e+001 -4.5175268e+002 1.3753384e+003)	(6.2727245e+001 -4.5173162e+002 1.3753572e+003)	(6.1426963e-001 -2.1061429e-002 -1.8780284e-002)
0.0734187      	(6.3383037e+001 -4.5074272e+002 1.3732008e+003)	(6.2775939e+001 -4.5072161e+002 1.3732198e+003)	(6.0709860e-001 -2.1112935e-002 -1.8971982e-002)
0.074368       	(6.3376998e+001 -4.4956339e+002 1.3706715e+003)	(6.2776347e+001 -4.4954224e+002 1.3706906e+003)	(6.0065106e-001 -2.1144679e-002 -1.9108883e-002)
0.0753174      	(6.3383357e+001 -4.4853758e+002 1.3684102e+003)	(6.2788475e+001 -4.4851643e+002 1.3684294e+003)	(5.9488200e-001 -2.1154484e-002 -1.9198305e-002)
0.0762667      	(6.3331946e+001 -4.4740823e+002 1.3660297e+003)	(6.2742199e+001 -4.4738709e+002 1.3660490e+003)	(5.8974707e-001 -2.1137346e-002 -1.9251045e-002)
0.077216       	(6.3396003e+001 -4.4636161e+002 1.3637420e+003)	(6.2810809e+001 -4.4634051e+002 1.3637613e+003)	(5.8519447e-001 -2.1096414e-002 -1.9267221e-002)
0.0781654      	(6.3319245e+001 -4.4501795e+002 1.3604647e+003)	(6.2738066e+001 -4.4499692e+002 1.3604840e+003)	(5.8117851e-001 -2.1032919e-002 -1.9253335e-002)
0.0791147      	(6.3294738e+001 -4.4418284e+002 1.3593493e+003)	(6.2717068e+001 -4.4416189e+002 1.3593685e+003)	(5.7767010e-001 -2.0944857e-002 -1.9209203e-002)
0.080064       	(6.3271739e+001 -4.4269814e+002 1.3554504e+003)	(6.2697115e+001 -4.4267730e+002 1.3554695e+003)	(5.7462424e-001 -2.0840260e-002 -1.9143927e-002)
0.0810134      	(6.3273100e+001 -4.4181370e+002 1.3541766e+003)	(6.2701081e+001 -4.4179299e+002 1.3541956e+003)	(5.7201940e-001 -2.0713968e-002 -1.9056968e-002)
0.0820127      	(6.3166653e+001 -4.4018175e+002 1.3499614e+003)	(6.2597003e+001 -4.4016118e+002 1.3499804e+003)	(5.6964934e-001 -2.0561958e-002 -1.8934531e-002)
0.083012       	(6.3123836e+001 -4.3905404e+002 1.3477376e+003)	(6.2556152e+001 -4.3903366e+002 1.3477564e+003)	(5.6768359e-001 -2.0383822e-002 -1.8799760e-002)
0.0840112      	(6.3174226e+001 -4.3769809e+002 1.3447765e+003)	(6.2608124e+001 -4.3767791e+002 1.3447951e+003)	(5.6610164e-001 -2.0183151e-002 -1.8654316e-002)
0.0850105      	(6.3123506e+001 -4.3649413e+002 1.3420664e+003)	(6.2558651e+001 -4.3647417e+002 1.3420849e+003)	(5.6485556e-001 -1.9964757e-002 -1.8486091e-002)
0.0860098      	(6.3141953e+001 -4.3521111e+002 1.3396197e+003)	(6.2578030e+001 -4.3519139e+002 1.3396380e+003)	(5.6392270e-001 -1.9726757e-002 -1.8304128e-002)
0.0870091      	(6.3099826e+001 -4.3392156e+002 1.3366352e+003)	(6.2536555e+001 -4.3390209e+002 1.3366533e+003)	(5.6327100e-001 -1.9468055e-002 -1.8090919e-002)
0.0880917      	(6.3014822e+001 -4.3220646e+002 1.3325528e+003)	(6.2452011e+001 -4.3218728e+002 1.3325707e+003)	(5.6281102e-001 -1.9178372e-002 -1.7828752e-002)
0.0891743      	(6.2926140e+001 -4.3117459e+002 1.3310545e+003)	(6.2363486e+001 -4.3115572e+002 1.3310720e+003)	(5.6265417e-001 -1.8867539e-002 -1.7546524e-002)
0.0902569      	(6.2856298e+001 -4.2965298e+002 1.3275321e+003)	(6.2293538e+001 -4.2963444e+002 1.3275494e+003)	(5.6275936e-001 -1.8541623e-002 -1.7250042e-002)
0.0913394      	(6.2772309e+001 -4.2835808e+002 1.3247610e+003)	(6.2209200e+001 -4.2833988e+002 1.3247779e+003)	(5.6310852e-001 -1.8201153e-002 -1.6929823e-002)
0.092422       	(6.2688793e+001 -4.2692517e+002 1.3217245e+003)	(6.2125102e+001 -4.2690732e+002 1.3217411e+003)	(5.6369062e-001 -1.7847218e-002 -1.6602860e-002)
0.0935046      	(6.2582440e+001 -4.2559129e+002 1.3188742e+003)	(6.2017977e+001 -4.2557381e+002 1.3188905e+003)	(5.6446291e-001 -1.7481532e-002 -1.6261745e-002)
0.0945871      	(6.2422033e+001 -4.2406783e+002 1.3156330e+003)	(6.1856625e+001 -4.2405073e+002 1.3156489e+003)	(5.6540806e-001 -1.7104440e-002 -1.5924898e-002)
0.0956697      	(6.2129927e+001 -4.2252667e+002 1.3123362e+003)	(6.1563462e+001 -4.2250995e+002 1.3123517e+003)	(5.6646466e-001 -1.6719334e-002 -1.5565029e-002)
0.0967523      	(6.2174080e+001 -4.2117366e+002 1.3095240e+003)	(6.1606436e+001 -4.2115735e+002 1.3095392e+003)	(5.6764352e-001 -1.6308345e-002 -1.5197180e-002)
0.0978349      	(6.2143092e+001 -4.1982347e+002 1.3067109e+003)	(6.1574168e+001 -4.1980759e+002 1.3067257e+003)	(5.6892366e-001 -1.5877012e-002 -1.4818017e-002)
0.0989174      	(6.2167827e+001 -4.1829659e+002 1.3033835e+003)	(6.1597516e+001 -4.1828116e+002 1.3033979e+003)	(5.7031036e-001 -1.5429074e-002 -1.4446759e-002)
