# Moment       
# CofR         : (0.0000000e+000 0.0000000e+000 0.0000000e+000)
#
# Time         	(total_x total_y total_z)	(pressure_x pressure_y pressure_z)	(viscous_x viscous_y viscous_z)
0.000119904    	(-1.0007283e+004 2.7386212e+005 1.5195498e+005)	(-1.0007287e+004 2.7386653e+005 1.5195954e+005)	(3.7395172e-003 -4.4044454e+000 -4.5528664e+000)
0.000263651    	(3.4801422e+001 5.5425140e+003 3.7365067e+003)	(3.4788959e+001 5.5471130e+003 3.7412406e+003)	(1.2462168e-002 -4.5990176e+000 -4.7339018e+000)
0.000436346    	(8.3902961e+001 3.7109448e+003 2.3177279e+003)	(8.3884408e+001 3.7156074e+003 2.3225375e+003)	(1.8552977e-002 -4.6625547e+000 -4.8095622e+000)
0.000643726    	(1.0323295e+002 3.0155309e+003 1.7464749e+003)	(1.0320948e+002 3.0201957e+003 1.7513080e+003)	(2.3467982e-002 -4.6648276e+000 -4.8330744e+000)
0.000893       	(1.1031994e+002 2.7035893e+003 1.4790357e+003)	(1.1029184e+002 2.7082251e+003 1.4838669e+003)	(2.8093190e-002 -4.6358341e+000 -4.8312870e+000)
0.00119243     	(1.1467087e+002 2.5020890e+003 1.2998404e+003)	(1.1463831e+002 2.5066711e+003 1.3046506e+003)	(3.2554523e-002 -4.5821218e+000 -4.8102082e+000)
0.00154869     	(1.1731613e+002 2.3524933e+003 1.1689572e+003)	(1.1727936e+002 2.3570004e+003 1.1737299e+003)	(3.6775405e-002 -4.5070466e+000 -4.7726359e+000)
0.00196281     	(1.1901393e+002 2.2480577e+003 1.0776612e+003)	(1.1897325e+002 2.2524711e+003 1.0823824e+003)	(4.0679816e-002 -4.4133688e+000 -4.7212412e+000)
0.00243376     	(1.2025778e+002 2.1702809e+003 1.0098960e+003)	(1.2021345e+002 2.1745846e+003 1.0145538e+003)	(4.4330630e-002 -4.3036611e+000 -4.6577780e+000)
0.00296227     	(1.2090741e+002 2.1202521e+003 9.6618993e+002)	(1.2085947e+002 2.1244311e+003 9.7077410e+002)	(4.7938313e-002 -4.1790804e+000 -4.5841722e+000)
0.00351566     	(1.2105259e+002 2.0865378e+003 9.3829319e+002)	(1.2100109e+002 2.0905853e+003 9.4279806e+002)	(5.1498457e-002 -4.0474918e+000 -4.5048695e+000)
0.00407571     	(1.2094196e+002 2.0654077e+003 9.2312537e+002)	(1.2088708e+002 2.0693213e+003 9.2754827e+002)	(5.4882932e-002 -3.9136306e+000 -4.4228992e+000)
0.00464976     	(1.2078110e+002 2.0500740e+003 9.1249784e+002)	(1.2072311e+002 2.0538512e+003 9.1683563e+002)	(5.7992032e-002 -3.7771612e+000 -4.3377873e+000)
0.00523118     	(1.2066186e+002 2.0337125e+003 9.0130536e+002)	(1.2060115e+002 2.0373529e+003 9.0555599e+002)	(6.0714909e-002 -3.6403467e+000 -4.2506341e+000)
0.00581259     	(1.2060775e+002 2.0207164e+003 8.9228678e+002)	(1.2054472e+002 2.0242220e+003 8.9645004e+002)	(6.3031525e-002 -3.5056096e+000 -4.1632612e+000)
0.00640176     	(1.2056178e+002 2.0083572e+003 8.8313935e+002)	(1.2049680e+002 2.0117290e+003 8.8721421e+002)	(6.4974259e-002 -3.3717257e+000 -4.0748647e+000)
0.00699092     	(1.2055097e+002 1.9968036e+003 8.7391530e+002)	(1.2048438e+002 2.0000444e+003 8.7790217e+002)	(6.6589598e-002 -3.2408071e+000 -3.9868745e+000)
0.00758009     	(1.2057242e+002 1.9866594e+003 8.6616273e+002)	(1.2050452e+002 1.9897723e+003 8.7006201e+002)	(6.7904769e-002 -3.1128943e+000 -3.8992851e+000)
0.00817755     	(1.2056369e+002 1.9762407e+003 8.5743454e+002)	(1.2049471e+002 1.9792272e+003 8.6124563e+002)	(6.8972096e-002 -2.9865486e+000 -3.8110858e+000)
0.00877501     	(1.2055132e+002 1.9670419e+003 8.5043869e+002)	(1.2048149e+002 1.9699057e+003 8.5416252e+002)	(6.9830984e-002 -2.8637845e+000 -3.7238330e+000)
0.00937248     	(1.2052305e+002 1.9586093e+003 8.4370820e+002)	(1.2045255e+002 1.9613540e+003 8.4734569e+002)	(7.0496214e-002 -2.7447816e+000 -3.6374875e+000)
0.00997886     	(1.2051068e+002 1.9504973e+003 8.3711376e+002)	(1.2043971e+002 1.9531250e+003 8.4066407e+002)	(7.0967384e-002 -2.6276810e+000 -3.5503089e+000)
0.0105852      	(1.2041693e+002 1.9421283e+003 8.3016042e+002)	(1.2034569e+002 1.9446429e+003 8.3362433e+002)	(7.1241699e-002 -2.5145551e+000 -3.4639121e+000)
0.0112011      	(1.2030628e+002 1.9339761e+003 8.2382832e+002)	(1.2023498e+002 1.9363800e+003 8.2720534e+002)	(7.1304805e-002 -2.4039457e+000 -3.3770198e+000)
0.011817       	(1.2019930e+002 1.9267176e+003 8.1800813e+002)	(1.2012813e+002 1.9290150e+003 8.2129901e+002)	(7.1176062e-002 -2.2973651e+000 -3.2908811e+000)
0.0124429      	(1.2019778e+002 1.9203832e+003 8.1285830e+002)	(1.2012691e+002 1.9225763e+003 8.1606249e+002)	(7.0873826e-002 -2.1930572e+000 -3.2041872e+000)
0.0130689      	(1.2006576e+002 1.9133346e+003 8.0697557e+002)	(1.1999537e+002 1.9154275e+003 8.1009401e+002)	(7.0395438e-002 -2.0928290e+000 -3.1184402e+000)
0.0136948      	(1.2006737e+002 1.9076770e+003 8.0246230e+002)	(1.1999760e+002 1.9096735e+003 8.0549602e+002)	(6.9764308e-002 -1.9965016e+000 -3.0337179e+000)
0.0143317      	(1.1992947e+002 1.9008647e+003 7.9674821e+002)	(1.1986050e+002 1.9027672e+003 7.9969687e+002)	(6.8969306e-002 -1.9024850e+000 -2.9486669e+000)
0.0149687      	(1.1989593e+002 1.8959234e+003 7.9305363e+002)	(1.1982788e+002 1.8977357e+003 7.9591850e+002)	(6.8056357e-002 -1.8122716e+000 -2.8648635e+000)
0.0156056      	(1.1980625e+002 1.8904755e+003 7.8848183e+002)	(1.1973923e+002 1.8922014e+003 7.9126414e+002)	(6.7021475e-002 -1.7259125e+000 -2.7823180e+000)
0.0162546      	(1.1977332e+002 1.8851702e+003 7.8407932e+002)	(1.1970747e+002 1.8868120e+003 7.8677887e+002)	(6.5849766e-002 -1.6418591e+000 -2.6995472e+000)
0.0169035      	(1.1961326e+002 1.8795399e+003 7.7940233e+002)	(1.1954869e+002 1.8811015e+003 7.8202046e+002)	(6.4570588e-002 -1.5615540e+000 -2.6181247e+000)
0.0175525      	(1.1956509e+002 1.8749127e+003 7.7562294e+002)	(1.1950188e+002 1.8763976e+003 7.7816119e+002)	(6.3203095e-002 -1.4849151e+000 -2.5382480e+000)
0.0182014      	(1.1942224e+002 1.8696246e+003 7.7122287e+002)	(1.1936049e+002 1.8710365e+003 7.7368271e+002)	(6.1746923e-002 -1.4118522e+000 -2.4598388e+000)
0.0188504      	(1.1937990e+002 1.8652423e+003 7.6760054e+002)	(1.1931968e+002 1.8665845e+003 7.6998351e+002)	(6.0219631e-002 -1.3422251e+000 -2.3829694e+000)
0.0194993      	(1.1928025e+002 1.8604072e+003 7.6328043e+002)	(1.1922163e+002 1.8616831e+003 7.6558804e+002)	(5.8619440e-002 -1.2759521e+000 -2.3076104e+000)
0.0201624      	(1.1926515e+002 1.8559646e+003 7.5945248e+002)	(1.1920822e+002 1.8571761e+003 7.6168469e+002)	(5.6929795e-002 -1.2115554e+000 -2.2322134e+000)
0.0208254      	(1.1915708e+002 1.8513881e+003 7.5539468e+002)	(1.1910190e+002 1.8525385e+003 7.5755319e+002)	(5.5185991e-002 -1.1504005e+000 -2.1585085e+000)
0.0214885      	(1.1913784e+002 1.8474454e+003 7.5202890e+002)	(1.1908444e+002 1.8485378e+003 7.5411535e+002)	(5.3402725e-002 -1.0923150e+000 -2.0864539e+000)
0.0221515      	(1.1901903e+002 1.8432287e+003 7.4831882e+002)	(1.1896745e+002 1.8442659e+003 7.5033489e+002)	(5.1588071e-002 -1.0371551e+000 -2.0160612e+000)
0.0228146      	(1.1898378e+002 1.8395079e+003 7.4521286e+002)	(1.1893402e+002 1.8404927e+003 7.4716024e+002)	(4.9768883e-002 -9.8475744e-001 -1.9473819e+000)
0.0234777      	(1.1893271e+002 1.8360265e+003 7.4205252e+002)	(1.1888475e+002 1.8369615e+003 7.4393296e+002)	(4.7957820e-002 -9.3499693e-001 -1.8804385e+000)
0.0241407      	(1.1879423e+002 1.8318185e+003 7.3882078e+002)	(1.1874808e+002 1.8327062e+003 7.4063601e+002)	(4.6150461e-002 -8.8777691e-001 -1.8152352e+000)
0.0248038      	(1.1872944e+002 1.8284486e+003 7.3577265e+002)	(1.1868509e+002 1.8292916e+003 7.3752439e+002)	(4.4348661e-002 -8.4297794e-001 -1.7517411e+000)
0.0254668      	(1.1865121e+002 1.8249796e+003 7.3310306e+002)	(1.1860866e+002 1.8257801e+003 7.3479304e+002)	(4.2552515e-002 -8.0048874e-001 -1.6899743e+000)
0.0261299      	(1.1858718e+002 1.8218855e+003 7.3044639e+002)	(1.1854642e+002 1.8226456e+003 7.3207632e+002)	(4.0764791e-002 -7.6017845e-001 -1.6299388e+000)
0.026793       	(1.1853506e+002 1.8187230e+003 7.2800045e+002)	(1.1849608e+002 1.8194450e+003 7.2957207e+002)	(3.8983280e-002 -7.2195035e-001 -1.5716261e+000)
0.0274755      	(1.1842024e+002 1.8153480e+003 7.2511795e+002)	(1.1838309e+002 1.8160327e+003 7.2663133e+002)	(3.7157143e-002 -6.8471427e-001 -1.5133784e+000)
0.0281581      	(1.1835645e+002 1.8121810e+003 7.2267967e+002)	(1.1832111e+002 1.8128305e+003 7.2413659e+002)	(3.5339859e-002 -6.4949161e-001 -1.4569229e+000)
0.0288406      	(1.1822939e+002 1.8090531e+003 7.2008981e+002)	(1.1819586e+002 1.8096693e+003 7.2149204e+002)	(3.3533459e-002 -6.1619504e-001 -1.4022280e+000)
0.0295232      	(1.1817738e+002 1.8060194e+003 7.1774492e+002)	(1.1814563e+002 1.8066042e+003 7.1909421e+002)	(3.1750206e-002 -5.8471185e-001 -1.3492902e+000)
0.0302293      	(1.1805383e+002 1.8027897e+003 7.1505309e+002)	(1.1802390e+002 1.8033437e+003 7.1634945e+002)	(2.9936001e-002 -5.5397826e-001 -1.2963527e+000)
0.0309354      	(1.1797095e+002 1.7995763e+003 7.1269286e+002)	(1.1794279e+002 1.8001013e+003 7.1393809e+002)	(2.8156589e-002 -5.2499282e-001 -1.2452262e+000)
0.0316415      	(1.1783256e+002 1.7968004e+003 7.1045433e+002)	(1.1780615e+002 1.7972981e+003 7.1165021e+002)	(2.6414892e-002 -4.9765112e-001 -1.1958779e+000)
0.0323758      	(1.1778223e+002 1.7936167e+003 7.0802660e+002)	(1.1775757e+002 1.7940876e+003 7.0917302e+002)	(2.4658491e-002 -4.7087720e-001 -1.1464170e+000)
0.0331102      	(1.1765319e+002 1.7907861e+003 7.0580176e+002)	(1.1763024e+002 1.7912318e+003 7.0690055e+002)	(2.2948939e-002 -4.4568688e-001 -1.0987930e+000)
0.0339144      	(1.1760879e+002 1.7873911e+003 7.0321268e+002)	(1.1758763e+002 1.7878110e+003 7.0426140e+002)	(2.1156183e-002 -4.1983017e-001 -1.0487163e+000)
0.0347611      	(1.1743392e+002 1.7838823e+003 7.0059441e+002)	(1.1741459e+002 1.7842767e+003 7.0159268e+002)	(1.9335489e-002 -3.9442971e-001 -9.9827186e-001)
0.0357135      	(1.1716401e+002 1.7783981e+003 6.9708451e+002)	(1.1714664e+002 1.7787660e+003 6.9802876e+002)	(1.7377711e-002 -3.6795356e-001 -9.4425339e-001)
0.0366064      	(1.1722062e+002 1.7769561e+003 6.9559620e+002)	(1.1720501e+002 1.7773010e+003 6.9649226e+002)	(1.5607678e-002 -3.4489162e-001 -8.9605762e-001)
0.0374993      	(1.1721243e+002 1.7743516e+003 6.9355814e+002)	(1.1719849e+002 1.7746750e+003 6.9440830e+002)	(1.3942273e-002 -3.2341791e-001 -8.5016231e-001)
0.0383327      	(1.1711550e+002 1.7719385e+003 6.9174200e+002)	(1.1710304e+002 1.7722432e+003 6.9255132e+002)	(1.2462254e-002 -3.0470700e-001 -8.0932586e-001)
0.0391105      	(1.1703108e+002 1.7693502e+003 6.8995949e+002)	(1.1701994e+002 1.7696386e+003 6.9073239e+002)	(1.1144499e-002 -2.8831495e-001 -7.7290078e-001)
0.0398883      	(1.1692697e+002 1.7667441e+003 6.8806097e+002)	(1.1691708e+002 1.7670170e+003 6.8879904e+002)	(9.8965111e-003 -2.7290905e-001 -7.3807453e-001)
0.0406661      	(1.1691890e+002 1.7644390e+003 6.8626544e+002)	(1.1691018e+002 1.7646974e+003 6.8697024e+002)	(8.7144955e-003 -2.5842528e-001 -7.0480329e-001)
0.0413841      	(1.1679855e+002 1.7623123e+003 6.8479282e+002)	(1.1679088e+002 1.7625582e+003 6.8546826e+002)	(7.6616668e-003 -2.4583921e-001 -6.7543241e-001)
0.0421021      	(1.1675485e+002 1.7601098e+003 6.8319200e+002)	(1.1674818e+002 1.7603437e+003 6.8383931e+002)	(6.6644874e-003 -2.3394707e-001 -6.4730195e-001)
0.0428201      	(1.1663204e+002 1.7576532e+003 6.8142494e+002)	(1.1662633e+002 1.7578760e+003 6.8204532e+002)	(5.7067272e-003 -2.2272549e-001 -6.2038400e-001)
0.0435381      	(1.1654342e+002 1.7551517e+003 6.7974465e+002)	(1.1653862e+002 1.7553638e+003 6.8033928e+002)	(4.7969411e-003 -2.1212365e-001 -5.9463111e-001)
0.0442561      	(1.1642130e+002 1.7527514e+003 6.7811609e+002)	(1.1641737e+002 1.7529535e+003 6.7868610e+002)	(3.9285966e-003 -2.0211113e-001 -5.7000648e-001)
0.0449741      	(1.1639211e+002 1.7507634e+003 6.7658866e+002)	(1.1638900e+002 1.7509560e+003 6.7713513e+002)	(3.1055948e-003 -1.9264220e-001 -5.4646667e-001)
0.0456921      	(1.1624727e+002 1.7481609e+003 6.7493066e+002)	(1.1624495e+002 1.7483446e+003 6.7545464e+002)	(2.3257465e-003 -1.8368776e-001 -5.2397721e-001)
0.0464101      	(1.1620984e+002 1.7460086e+003 6.7339830e+002)	(1.1620825e+002 1.7461838e+003 6.7390079e+002)	(1.5906218e-003 -1.7521764e-001 -5.0249274e-001)
0.047128       	(1.1612505e+002 1.7437392e+003 6.7186268e+002)	(1.1612415e+002 1.7439064e+003 6.7234466e+002)	(8.9757494e-004 -1.6720676e-001 -4.8197579e-001)
0.047846       	(1.1608525e+002 1.7416699e+003 6.7044955e+002)	(1.1608499e+002 1.7418295e+003 6.7091193e+002)	(2.5037759e-004 -1.5962343e-001 -4.6237906e-001)
0.048564       	(1.1598966e+002 1.7393094e+003 6.6887704e+002)	(1.1599002e+002 1.7394618e+003 6.6932071e+002)	(-3.5862821e-004 -1.5243963e-001 -4.4367183e-001)
0.049282       	(1.1595385e+002 1.7373773e+003 6.6758870e+002)	(1.1595477e+002 1.7375230e+003 6.6801452e+002)	(-9.2189324e-004 -1.4561668e-001 -4.2582108e-001)
0.05           	(1.1583464e+002 1.7349491e+003 6.6606998e+002)	(1.1583609e+002 1.7350883e+003 6.6647878e+002)	(-1.4468259e-003 -1.3914729e-001 -4.0879419e-001)
0.0507937      	(1.1578605e+002 1.7322980e+003 6.6425220e+002)	(1.1578802e+002 1.7324304e+003 6.6464308e+002)	(-1.9702737e-003 -1.3236427e-001 -3.9087989e-001)
0.0516003      	(1.1564577e+002 1.7295927e+003 6.6269026e+002)	(1.1564823e+002 1.7297185e+003 6.6306389e+002)	(-2.4556014e-003 -1.2586487e-001 -3.7362737e-001)
0.0524206      	(1.1561562e+002 1.7273477e+003 6.6118604e+002)	(1.1561852e+002 1.7274673e+003 6.6154306e+002)	(-2.9048010e-003 -1.1963485e-001 -3.5702148e-001)
0.053241       	(1.1552244e+002 1.7248882e+003 6.5966808e+002)	(1.1552576e+002 1.7250020e+003 6.6000940e+002)	(-3.3160501e-003 -1.1376532e-001 -3.4131297e-001)
0.054076       	(1.1547554e+002 1.7224859e+003 6.5810490e+002)	(1.1547924e+002 1.7225940e+003 6.5843111e+002)	(-3.6968877e-003 -1.0812547e-001 -3.2620733e-001)
0.0549109      	(1.1534899e+002 1.7199976e+003 6.5662354e+002)	(1.1535303e+002 1.7201004e+003 6.5693549e+002)	(-4.0415301e-003 -1.0281087e-001 -3.1195387e-001)
0.0557617      	(1.1531720e+002 1.7176811e+003 6.5511512e+002)	(1.1532155e+002 1.7177788e+003 6.5541338e+002)	(-4.3558664e-003 -9.7694714e-002 -2.9826092e-001)
0.0566291      	(1.1513326e+002 1.7147406e+003 6.5346219e+002)	(1.1513790e+002 1.7148333e+003 6.5374731e+002)	(-4.6406503e-003 -9.2764712e-002 -2.8511959e-001)
0.0574965      	(1.1514563e+002 1.7126767e+003 6.5200956e+002)	(1.1515053e+002 1.7127648e+003 6.5228233e+002)	(-4.8956297e-003 -8.8111532e-002 -2.7276320e-001)
0.058382       	(1.1503544e+002 1.7100601e+003 6.5049994e+002)	(1.1504057e+002 1.7101437e+003 6.5076085e+002)	(-5.1226812e-003 -8.3618102e-002 -2.6090512e-001)
0.0592675      	(1.1501121e+002 1.7076055e+003 6.4896157e+002)	(1.1501653e+002 1.7076849e+003 6.4921134e+002)	(-5.3224985e-003 -7.9376432e-002 -2.4977698e-001)
0.0601727      	(1.1492380e+002 1.7050436e+003 6.4746940e+002)	(1.1492930e+002 1.7051189e+003 6.4770852e+002)	(-5.4942389e-003 -7.5274844e-002 -2.3912535e-001)
0.0610989      	(1.1488063e+002 1.7024331e+003 6.4585945e+002)	(1.1488627e+002 1.7025044e+003 6.4608838e+002)	(-5.6412607e-003 -7.1312329e-002 -2.2893001e-001)
0.0620251      	(1.1481066e+002 1.6999843e+003 6.4443426e+002)	(1.1481642e+002 1.7000519e+003 6.4465367e+002)	(-5.7611092e-003 -6.7572304e-002 -2.1941195e-001)
0.0629513      	(1.1475193e+002 1.6973489e+003 6.4295358e+002)	(1.1475778e+002 1.6974129e+003 6.4316411e+002)	(-5.8540113e-003 -6.4033929e-002 -2.1052652e-001)
0.0638775      	(1.1471073e+002 1.6951765e+003 6.4160099e+002)	(1.1471666e+002 1.6952372e+003 6.4180322e+002)	(-5.9298273e-003 -6.0673870e-002 -2.0223163e-001)
0.0648037      	(1.1448890e+002 1.6917528e+003 6.3995054e+002)	(1.1449489e+002 1.6918102e+003 6.4014502e+002)	(-5.9865365e-003 -5.7472720e-002 -1.9448494e-001)
0.065755       	(1.1445732e+002 1.6896096e+003 6.3849454e+002)	(1.1446334e+002 1.6896640e+003 6.3868163e+002)	(-6.0241300e-003 -5.4349627e-002 -1.8708396e-001)
0.0667062      	(1.1428463e+002 1.6862776e+003 6.3683177e+002)	(1.1429067e+002 1.6863290e+003 6.3701200e+002)	(-6.0430557e-003 -5.1401562e-002 -1.8022567e-001)
0.0676575      	(1.1418280e+002 1.6835772e+003 6.3538725e+002)	(1.1418884e+002 1.6836258e+003 6.3556114e+002)	(-6.0434757e-003 -4.8617381e-002 -1.7388991e-001)
0.0686087      	(1.1415736e+002 1.6810311e+003 6.3390833e+002)	(1.1416338e+002 1.6810771e+003 6.3407636e+002)	(-6.0266649e-003 -4.5996352e-002 -1.6803446e-001)
0.0695897      	(1.1406970e+002 1.6782888e+003 6.3237192e+002)	(1.1407570e+002 1.6783323e+003 6.3253439e+002)	(-5.9924930e-003 -4.3450006e-002 -1.6246429e-001)
0.0705707      	(1.1401792e+002 1.6753570e+003 6.3076922e+002)	(1.1402386e+002 1.6753981e+003 6.3092656e+002)	(-5.9439500e-003 -4.1077431e-002 -1.5733670e-001)
0.07152        	(1.1392642e+002 1.6727823e+003 6.2939657e+002)	(1.1393230e+002 1.6728212e+003 6.2954936e+002)	(-5.8884660e-003 -3.8949514e-002 -1.5278533e-001)
0.0724694      	(1.1383149e+002 1.6701170e+003 6.2794505e+002)	(1.1383731e+002 1.6701538e+003 6.2809368e+002)	(-5.8193569e-003 -3.6808247e-002 -1.4863341e-001)
0.0734187      	(1.1377389e+002 1.6678501e+003 6.2663955e+002)	(1.1377963e+002 1.6678849e+003 6.2678439e+002)	(-5.7393265e-003 -3.4764129e-002 -1.4483623e-001)
0.074368       	(1.1368456e+002 1.6649734e+003 6.2505132e+002)	(1.1369021e+002 1.6650062e+003 6.2519269e+002)	(-5.6500025e-003 -3.2812584e-002 -1.4136731e-001)
0.0753174      	(1.1361399e+002 1.6626006e+003 6.2376406e+002)	(1.1361955e+002 1.6626315e+003 6.2390226e+002)	(-5.5531827e-003 -3.0944647e-002 -1.3820334e-001)
0.0762667      	(1.1354589e+002 1.6597646e+003 6.2220577e+002)	(1.1355135e+002 1.6597937e+003 6.2234111e+002)	(-5.4512043e-003 -2.9165386e-002 -1.3533876e-001)
0.077216       	(1.1347425e+002 1.6573709e+003 6.2087664e+002)	(1.1347959e+002 1.6573984e+003 6.2100939e+002)	(-5.3438464e-003 -2.7455046e-002 -1.3274781e-001)
0.0781654      	(1.1330065e+002 1.6538720e+003 6.1917721e+002)	(1.1330588e+002 1.6538978e+003 6.1930762e+002)	(-5.2325425e-003 -2.5823716e-002 -1.3040971e-001)
0.0791147      	(1.1338265e+002 1.6520906e+003 6.1784574e+002)	(1.1338777e+002 1.6521149e+003 6.1797405e+002)	(-5.1166342e-003 -2.4263114e-002 -1.2831182e-001)
0.080064       	(1.1313377e+002 1.6482350e+003 6.1607435e+002)	(1.1313877e+002 1.6482577e+003 6.1620078e+002)	(-5.0005390e-003 -2.2775158e-002 -1.2643099e-001)
0.0810134      	(1.1320039e+002 1.6462789e+003 6.1469887e+002)	(1.1320527e+002 1.6463002e+003 6.1482363e+002)	(-4.8822653e-003 -2.1349972e-002 -1.2476398e-001)
0.0820127      	(1.1293005e+002 1.6421648e+003 6.1274907e+002)	(1.1293480e+002 1.6421847e+003 6.1287227e+002)	(-4.7550760e-003 -1.9906149e-002 -1.2320094e-001)
0.083012       	(1.1288612e+002 1.6395946e+003 6.1124622e+002)	(1.1289075e+002 1.6396131e+003 6.1136806e+002)	(-4.6283909e-003 -1.8527240e-002 -1.2184019e-001)
0.0840112      	(1.1275757e+002 1.6363829e+003 6.0950847e+002)	(1.1276207e+002 1.6364001e+003 6.0962914e+002)	(-4.5039387e-003 -1.7212660e-002 -1.2067349e-001)
0.0850105      	(1.1265191e+002 1.6335182e+003 6.0800248e+002)	(1.1265629e+002 1.6335342e+003 6.0812216e+002)	(-4.3779247e-003 -1.5950804e-002 -1.1968278e-001)
0.0860098      	(1.1258926e+002 1.6305313e+003 6.0623780e+002)	(1.1259351e+002 1.6305460e+003 6.0635667e+002)	(-4.2544685e-003 -1.4735413e-002 -1.1886378e-001)
0.0870091      	(1.1244473e+002 1.6275647e+003 6.0469340e+002)	(1.1244885e+002 1.6275783e+003 6.0481161e+002)	(-4.1288516e-003 -1.3547458e-002 -1.1821213e-001)
0.0880917      	(1.1221962e+002 1.6232210e+003 6.0249897e+002)	(1.1222361e+002 1.6232333e+003 6.0261663e+002)	(-3.9924680e-003 -1.2306911e-002 -1.1765167e-001)
0.0891743      	(1.1228491e+002 1.6208075e+003 6.0087206e+002)	(1.1228876e+002 1.6208186e+003 6.0098932e+002)	(-3.8554536e-003 -1.1132095e-002 -1.1726128e-001)
0.0902569      	(1.1211850e+002 1.6168499e+003 5.9887010e+002)	(1.1212222e+002 1.6168600e+003 5.9898712e+002)	(-3.7210983e-003 -1.0028853e-002 -1.1701441e-001)
0.0913394      	(1.1203567e+002 1.6136151e+003 5.9710513e+002)	(1.1203925e+002 1.6136240e+003 5.9722203e+002)	(-3.5859208e-003 -8.9722449e-003 -1.1690462e-001)
0.092422       	(1.1193325e+002 1.6099101e+003 5.9508726e+002)	(1.1193671e+002 1.6099181e+003 5.9520418e+002)	(-3.4550713e-003 -7.9887062e-003 -1.1691841e-001)
0.0935046      	(1.1184826e+002 1.6065176e+003 5.9322718e+002)	(1.1185159e+002 1.6065246e+003 5.9334422e+002)	(-3.3242742e-003 -7.0594998e-003 -1.1703890e-001)
0.0945871      	(1.1173551e+002 1.6024803e+003 5.9102716e+002)	(1.1173871e+002 1.6024865e+003 5.9114442e+002)	(-3.1989579e-003 -6.2069450e-003 -1.1725514e-001)
0.0956697      	(1.1164146e+002 1.5981416e+003 5.8872121e+002)	(1.1164454e+002 1.5981470e+003 5.8883876e+002)	(-3.0754341e-003 -5.3607166e-003 -1.1754922e-001)
0.0967523      	(1.1153257e+002 1.5949827e+003 5.8693253e+002)	(1.1153552e+002 1.5949872e+003 5.8705049e+002)	(-2.9552019e-003 -4.5457270e-003 -1.1796139e-001)
0.0978349      	(1.1142974e+002 1.5918231e+003 5.8512461e+002)	(1.1143257e+002 1.5918268e+003 5.8524309e+002)	(-2.8361956e-003 -3.7571116e-003 -1.1847192e-001)
0.0989174      	(1.1128558e+002 1.5880156e+003 5.8308095e+002)	(1.1128830e+002 1.5880186e+003 5.8320001e+002)	(-2.7239507e-003 -3.0092657e-003 -1.1906164e-001)
