
5490
(
(1.285419 0 1.300368)
(1.574046 4.262116e-021 1.042283)
(1.185976 2.329388e-017 -0.157481)
(3.905099 0 -0.3471532)
(1.703796 -6.622039e-018 -0.5918242)
(4.313429 -2.487884e-018 -0.8921573)
(2.484395 2.574442e-018 -1.044349)
(-0.03482022 0 2.031925)
(-0.01787482 1.095839e-020 2.584336)
(0.2257285 -7.896858e-018 1.455264)
(2.255085 -2.446472e-018 -0.682867)
(0.6251848 -1.353301e-017 0.6584964)
(2.41103 3.764706e-018 -0.7663844)
(1.202047 0 0.1063921)
(5.070225 0 -0.08291354)
(6.407963 0 -0.1490885)
(2.798104 -1.970761e-018 -0.6148702)
(3.347844 0 -0.117227)
(2.636867 0 -0.07577344)
(-0.01727692 0 1.177791)
(-0.04115479 -2.439063e-017 1.762565)
(-0.02940386 -8.16755e-018 1.594742)
(2.689576 5.339974e-018 -0.1295225)
(0.0271038 1.593903e-017 1.340384)
(0.3405388 9.996449e-018 0.8232349)
(2.560814 0 -0.8821627)
(1.86125 -1.020555e-017 -0.6436501)
(2.721762 0 -0.2393476)
(2.842649 0 -0.4890309)
(-0.001797997 0 1.136237)
(-0.01182034 0 1.709669)
(-0.02885836 0 1.564007)
(4.439823 0 -0.04067721)
(-0.05196413 0 1.353861)
(5.420577 -3.588568e-021 -0.06869987)
(2.910807 -2.122043e-018 -0.0718459)
(-0.0304862 0 1.052022)
(2.613765 -9.788957e-019 -0.08400917)
(2.866711 -5.912282e-018 -0.8464516)
(1.042097 1.001639e-017 -0.2489727)
(2.592425 0 -0.1079633)
(2.672508 0 -0.4803848)
(2.7675 3.474223e-018 -0.716621)
(2.616338 -1.4048e-018 -0.291598)
(2.571093 -1.107878e-018 -0.1503471)
(0.3930006 -7.500172e-018 0.1235024)
(-0.003856474 0 1.01389)
(-0.0175586 1.678065e-017 1.535759)
(-0.0423425 2.461105e-019 1.426428)
(-0.06623499 -7.848723e-018 1.263539)
(-0.115219 1.497309e-018 1.074403)
(2.372342 0 -1.056003)
(1.909239 4.617982e-020 -1.001894)
(2.63664 0 -0.6556635)
(2.666499 0 -0.9514632)
(2.578402 -1.388264e-022 -0.4495828)
(1.365731 6.341876e-018 -0.9376726)
(4.430085 0 -0.03361038)
(2.531136 0 -0.1908896)
(5.391479 7.131553e-018 -0.04268572)
(2.844953 -1.011857e-018 -0.02866028)
(0.1077072 -6.846508e-018 0.3198387)
(2.55343 -8.88489e-021 -0.3091801)
(2.532469 -5.877672e-020 -0.03993801)
(2.506493 0 -0.06196519)
(-0.004253283 0 0.8961191)
(-0.01852871 -1.659483e-017 1.364955)
(-0.04283482 -2.559876e-017 1.283471)
(2.597973 0 -0.8379087)
(-0.06780751 0 1.160813)
(-0.1283992 0 1.020509)
(0.8686668 0 -0.7248856)
(2.556108 0 -0.5839081)
(2.491526 0 -0.09360058)
(2.497114 0 -0.2198457)
(2.551834 3.164379e-018 -0.7330429)
(-0.06314463 0 0.4383853)
(0.5815944 6.353943e-018 -0.6109642)
(2.469749 0 -0.1268238)
(-0.004811933 0 0.7767569)
(-0.02081145 -2.487993e-017 1.187033)
(-0.04848659 -9.076294e-018 1.124188)
(-0.08291142 -2.585406e-017 1.029073)
(-0.1452955 -7.466636e-018 0.9179239)
(2.473626 0 -0.6642429)
(4.445075 0 -0.03344288)
(5.37146 0 -0.04146946)
(2.78352 0 -0.02391381)
(2.463234 5.368795e-020 -0.02938441)
(2.43994 2.505179e-021 -0.04429083)
(0.22788 -1.220911e-017 -0.2969643)
(-0.1792052 -2.282717e-017 0.4893524)
(2.44986 0 -0.1523548)
(2.452279 -4.428206e-018 -0.4155808)
(2.43142 1.657712e-018 -0.06643804)
(-0.004696378 0 0.6573481)
(-0.02170815 0 1.004881)
(-0.05145534 0 0.9537022)
(-0.0893863 0 0.8792276)
(-0.145984 5.563365e-022 0.7926233)
(2.419815 0 -0.09223058)
(2.432294 0 -0.2505243)
(0.06098849 0 -0.2353166)
(2.018626 -3.729787e-021 -1.179222)
(-0.2099077 0 0.4740595)
(1.4273 0 -1.271448)
(2.389187 4.974521e-018 -0.5587632)
(2.408486 -8.739435e-019 -0.1153804)
(2.219308 0 -0.9469278)
(4.470951 0 -0.03321178)
(5.376977 0 -0.0403969)
(2.745904 0 -0.02087682)
(2.415368 0 -0.02323822)
(-0.003210284 0 0.5472527)
(-0.01894422 -1.599849e-017 0.8339342)
(-0.04625536 8.741923e-018 0.7898674)
(2.391982 1.422206e-020 -0.0340022)
(-0.07837003 1.688935e-017 0.7336189)
(-0.1225595 -1.615805e-017 0.6700614)
(-0.1145814 0 -0.02926567)
(2.386092 3.09856e-020 -0.04997986)
(0.9201596 0 -1.218194)
(-0.1732707 0 0.4285098)
(2.3639 0 -0.3740761)
(2.37908 0 -0.06935626)
(2.30513 0 -0.7374622)
(-0.001402624 0 0.4536899)
(-0.01474634 0 0.6874094)
(-0.03738879 1.021839e-024 0.6506452)
(-0.05843448 -1.099005e-017 -0.0959243)
(-0.06041337 1.688935e-017 0.6163384)
(-0.08933646 0 0.5838747)
(2.376195 -1.79743e-018 -0.1496443)
(2.372207 6.77505e-021 -0.08632977)
(2.362697 0 -0.253829)
(-0.1069102 2.756692e-017 0.4361147)
(2.313026 -2.487261e-018 -0.4785824)
(4.498051 0 -0.03318234)
(5.389601 0 -0.03988191)
(2.717988 0 -0.01899829)
(0.5564476 -3.824461e-017 -1.179611)
(2.378416 0 -0.01932157)
(2.354728 1.039482e-022 -0.02751477)
(2.350347 0 -0.03964167)
(2.244939 0 -0.6277717)
(-0.04325627 1.408854e-017 0.08923404)
(-0.004040377 0 0.3591802)
(-0.02238775 5.258134e-019 0.5383525)
(-0.0527004 5.357378e-019 0.5080851)
(-0.08666616 5.597138e-019 0.4936143)
(-0.1295265 1.330342e-017 0.4816482)
(2.345988 -8.077178e-019 -0.05495754)
(-0.2395484 1.35722e-017 0.3598649)
(2.34199 0 -0.06982419)
(2.293543 3.947717e-018 -0.339392)
(2.330591 -1.631636e-018 -0.1663888)
(0.275324 -1.064577e-017 -1.00944)
(-0.4025983 0 -0.04682513)
(4.527042 0 -0.03322706)
(-0.007484657 0 0.2427105)
(5.407452 -1.772963e-018 -0.03951375)
(-0.031779 0 0.3501888)
(-0.0711154 0 0.319168)
(2.3077 6.854505e-021 -0.2483474)
(2.696823 1.832528e-018 -0.01750703)
(-0.1207189 0 0.3184805)
(2.348718 -8.038284e-019 -0.01635556)
(-0.1911562 -2.621997e-017 0.3137656)
(2.324582 0 -0.02277135)
(2.231806 -2.585556e-018 -0.5300479)
(2.254375 0 -0.4208954)
(2.32103 0 -0.03211143)
(-0.3975779 0 0.1739444)
(2.325368 0 -0.09468346)
(2.317882 0 -0.04409377)
(-0.7193175 0 -0.1092013)
(2.314836 0 -0.055395)
(-0.01036974 0 0.1054768)
(-0.03617258 3.216493e-017 0.1322375)
(-0.07479933 -8.811961e-018 0.09971589)
(-0.125786 3.06799e-019 0.1043437)
(-0.2074424 9.070514e-018 0.1001755)
(-0.4007685 1.228546e-017 -0.01194696)
(2.291391 0 -0.1747872)
(-0.106724 0 -0.7794743)
(4.55732 0 -0.03332078)
(5.428984 0 -0.03928402)
(2.680584 0 -0.01637009)
(2.324194 -1.016044e-019 -0.01416127)
(2.299558 1.219406e-024 -0.01932595)
(2.172464 0 -0.4639385)
(-0.6639378 1.927254e-017 -0.2798909)
(2.297083 6.419456e-018 -0.1104469)
(2.29657 -1.592222e-018 -0.02659976)
(-0.01357419 0 -0.03011853)
(-0.03942635 -1.247293e-022 -0.07299016)
(-0.07051654 0 -0.09844386)
(-0.1060436 -1.786818e-017 -0.08992813)
(-0.1724389 -1.380624e-019 -0.09054378)
(2.294266 0 -0.03607941)
(-0.2922512 0 -0.1784047)
(2.2924 1.610473e-018 -0.04567684)
(-0.4031628 7.683884e-021 -0.3391091)
(1.221946 0 -1.013469)
(1.730853 3.652462e-017 -0.8114173)
(-0.01352411 0 -0.1757172)
(-0.04317169 -5.108913e-019 -0.2679243)
(-0.06533713 1.79057e-017 -0.2496132)
(-0.07978909 -8.660516e-018 -0.2241102)
(-0.1142263 1.547986e-018 -0.2422451)
(-0.4741115 0 -0.5324731)
(4.588782 0 -0.03343771)
(5.453308 0 -0.03914743)
(2.272299 0 -0.1187878)
(2.667937 0 -0.01548035)
(2.282961 -2.177078e-018 -0.06291158)
(2.30356 0 -0.01244234)
(2.278369 -1.592903e-018 -0.01665546)
(-0.2519063 0 -0.3374058)
(2.275722 2.75525e-020 -0.02232485)
(2.212352 -2.741802e-020 -0.2775112)
(2.273843 2.75525e-020 -0.02974171)
(-0.2440974 3.547061e-018 -0.3707829)
(2.272066 -8.147019e-019 -0.03687203)
(0.8860919 -4.052661e-019 -1.134488)
(0.008529454 0 -0.3746626)
(-0.03727692 0 -0.4687754)
(-0.05391048 0 -0.2921358)
(1.94713 1.92327e-017 -0.5891021)
(-0.04576953 0 -0.2631832)
(-0.08264316 -3.370872e-018 -0.3264116)
(2.265138 0 -0.07558148)
(-0.1168251 -6.609682e-018 -0.3372898)
(0.0385563 0 -0.2423854)
(4.621209 0 -0.03359974)
(5.479712 3.800197e-018 -0.03909655)
(2.657956 -1.858642e-018 -0.01476992)
(2.285881 1.617085e-018 -0.01105791)
(2.260078 0 -0.01450943)
(2.23322 0 -0.1713152)
(0.3947476 0 -0.2748698)
(2.257639 1.591608e-018 -0.01900248)
(0.02883552 0 -0.3829328)
(0.006135519 1.346117e-019 -0.5097598)
(-0.01070679 5.504255e-019 -0.3698248)
(-0.02332846 2.034213e-020 -0.3489001)
(2.134135 2.329296e-017 -0.3552624)
(-0.03129595 0 -0.3348431)
(2.256142 0 -0.02493562)
(0.1557784 0 -0.1836129)
(2.255014 0 -0.03100001)
(2.248142 0 -0.0846983)
(0.4273347 0 -0.05816912)
(1.124913 -6.449941e-018 -0.7149292)
(2.248975 0 -0.04222338)
(0.01192993 0 -0.2620369)
(0.00859702 1.251033e-018 -0.4411029)
(2.029019 0 -0.4615096)
(-0.01713466 5.000348e-022 -0.46239)
(-0.05789789 -1.438222e-018 -0.4190125)
(-0.02163359 0 -0.2863563)
(4.654292 0 -0.03378291)
(5.507903 -7.890833e-018 -0.03909686)
(2.65035 0 -0.01417978)
(0.1885109 0 -0.04038735)
(2.270502 -1.695452e-018 -0.00990104)
(2.243996 0 -0.01269751)
(2.241692 0 -0.01620943)
(0.4069801 -9.352073e-021 0.0736229)
(2.240394 0 -0.02089562)
(0.7951152 -7.450592e-022 0.01234563)
(2.239235 0 -0.025495)
(2.237328 0 -0.05096665)
(-0.009537994 0 -0.3525878)
(-0.02855718 -3.780091e-019 -0.5894567)
(-0.04469601 6.648685e-019 -0.5985218)
(-0.04706672 -1.122844e-018 -0.4903746)
(0.07108268 -2.032666e-019 -0.2216902)
(2.163061 0 -0.2232902)
(0.3542056 0 0.1851449)
(0.5938162 0 0.3057078)
(4.688058 0 -0.03396347)
(5.537473 -7.890833e-018 -0.03913534)
(2.644464 3.998949e-025 -0.01370529)
(2.256979 1.643627e-018 -0.008943185)
(2.226082 -1.474795e-018 -0.05680416)
(2.229739 0 -0.01119786)
(2.22756 1.161835e-018 -0.01389135)
(0.007228124 0 -0.3522146)
(0.03945888 0 -0.5502366)
(2.214976 6.390543e-018 -0.09263505)
(2.226484 -1.624671e-018 -0.01752412)
(0.1248644 0 -0.4966677)
(0.2673905 0 -0.3238064)
(2.225683 0 -0.02125926)
(0.5370084 -2.037039e-020 0.01642643)
(2.184883 0 -0.1508969)
(1.35757 -6.234094e-021 -0.1443349)
(2.105705 0 -0.277124)
(2.018929 0 -0.3489885)
(0.8210238 1.443905e-018 0.4128049)
(1.029165 4.087559e-018 0.2572234)
(2.221598 -1.619431e-018 -0.02839694)
(1.592172 1.799373e-017 -0.5476597)
(0.9026537 0 0.4905191)
(1.250363 0 -0.6402357)
(0.1542982 0 -0.1147354)
(0.3917366 1.298674e-018 -0.1512718)
(0.1845185 0 0.02171943)
(0.6891603 4.663843e-018 -0.05398985)
(4.722408 0 -0.03416967)
(5.568076 0 -0.03921951)
(2.639864 0 -0.01330445)
(2.244981 0 -0.008123746)
(0.5111784 0 0.06361259)
(2.217004 0 -0.009922258)
(2.214915 1.614984e-018 -0.01191481)
(1.035402 -1.181097e-018 0.08776525)
(0.9468891 0 0.1271579)
(2.213731 0 -0.03422876)
(2.213992 -7.847572e-019 -0.01464241)
(1.243198 0 -0.5256789)
(1.769124 0 -0.4486068)
(0.053698 0 0.006910033)
(1.494682 -1.469326e-018 0.2843336)
(2.213097 -6.489318e-021 -0.01727339)
(1.421669 0 0.1958046)
(0.2493054 0 0.0325805)
(1.591678 2.430747e-018 0.4782329)
(0.06165533 0 0.006721625)
(0.6872984 -1.246608e-018 0.09046676)
(1.523975 0 0.4963631)
(1.828572 -2.769852e-018 0.2587566)
(0.2553265 0 0.02874808)
(1.248081 0 0.1637818)
(2.205904 5.186904e-018 -0.03909678)
(0.6752965 0 0.0786586)
(0.05347571 0 0.005851689)
(1.770249 0 0.2376458)
(1.22139 0 0.1455379)
(0.2362294 0 0.02649324)
(1.440705 0 0.4400313)
(4.757125 0 -0.03440499)
(5.599585 0 -0.03933928)
(2.636497 0 -0.01294668)
(2.234244 0 -0.007399099)
(2.036667 0 0.3662238)
(2.205503 -1.662778e-018 -0.008815449)
(2.007851 -1.372392e-018 0.2984667)
(2.007715 0 0.4326236)
(2.203485 -8.381204e-019 -0.0102452)
(0.6447365 9.717216e-019 0.07376182)
(1.566915 0 -0.2742084)
(1.945981 -2.158318e-021 0.4481219)
(2.202727 1.396864e-020 -0.01225811)
(1.700986 2.592238e-018 0.2078518)
(2.122628 -2.461659e-018 -0.1835687)
(2.178154 1.935562e-021 -0.08878514)
(0.04994915 0 0.005287164)
(1.189189 -1.589428e-018 0.1376397)
(2.202087 0 -0.01431331)
(0.2246325 3.58982e-020 0.02423415)
(2.039665 -7.083891e-018 -0.2804842)
(1.448978 -5.036919e-018 0.0864384)
(1.682082 0 0.1968183)
(0.6224013 9.717216e-019 0.06823311)
(2.034503 7.895598e-019 0.350765)
(2.199023 -3.309024e-021 -0.01832829)
(2.044097 0 0.3056088)
(2.000502 0 0.395428)
(2.025767 3.99783e-018 0.2718087)
(1.163412 -1.97258e-018 0.128961)
(0.04655379 0 0.004761798)
(1.938592 -1.394023e-018 0.3949803)
(2.14569 0 -0.133356)
(2.000019 2.706256e-018 0.2482053)
(2.082108 0 -0.2239313)
(0.2120091 5.175556e-019 0.0220755)
(1.663851 0 0.1857951)
(0.5990539 -8.421977e-019 0.06341408)
(4.792139 0 -0.03465902)
(5.631897 -2.127279e-018 -0.03948021)
(2.634217 -9.539743e-019 -0.01261627)
(2.193321 6.464391e-018 -0.02156389)
(2.224559 1.7791e-018 -0.006737182)
(2.19503 0 -0.007813238)
(2.193058 0 -0.008743994)
(1.980748 5.572157e-018 0.2317512)
(2.186896 7.435758e-022 -0.04511536)
(2.034153 0 0.3193383)
(1.136621 1.217765e-018 0.1219823)
(2.192387 0 -0.0101233)
(1.801723 0 0.3363646)
(0.04265369 0 0.004269342)
(2.04953 0 0.2938712)
(2.191697 0 -0.01147517)
(2.052836 5.753546e-018 0.268051)
(0.2029379 2.617359e-019 0.02073467)
(1.641617 0 0.1768203)
(1.965636 0 0.2183545)
(0.5817911 3.875845e-019 0.06053957)
(2.050875 2.207258e-020 0.2488954)
(1.646902 -3.522015e-018 -0.1350149)
(2.187588 0 -0.02394404)
(1.115732 0 0.117949)
(2.04578 2.785832e-018 0.2346728)
(2.018301 0 0.3009015)
(2.040214 0 0.277344)
(1.647194 -1.010119e-019 0.1733368)
(1.948483 -1.340251e-018 0.2071451)
(1.955 0 0.3108135)
(2.046802 0 0.256559)
(4.827345 0 -0.03490991)
(5.664998 -2.059338e-019 -0.0396334)
(2.633039 -1.186567e-019 -0.01233111)
(0.04040061 0 0.003631276)
(2.215798 0 -0.006152955)
(2.185451 -8.522596e-019 -0.006924051)
(2.039758 0 0.2225862)
(2.183528 1.42532e-020 -0.007413214)
(0.1918885 1.352463e-019 0.01788488)
(2.050162 -1.418669e-018 0.2398764)
(2.182958 0 -0.008229141)
(0.5582935 -9.246392e-019 0.0535526)
(2.182446 -1.701708e-018 -0.009064131)
(1.920162 -2.282763e-018 0.1973084)
(2.145168 -2.155638e-018 -0.08291166)
(2.050392 0 0.2278907)
(1.898754 5.068716e-018 0.2734197)
(1.083821 -8.960179e-020 0.1058277)
(2.031487 0 0.2119316)
(2.024153 0 -0.2188314)
(0.03904606 0 0.003348513)
(2.180104 -1.675189e-018 -0.01077356)
(1.654719 1.67391e-018 0.164239)
(0.1827944 0 0.01626834)
(2.050201 0 0.2173272)
(1.603008 0 -0.362284)
(1.4233 2.16874e-017 -0.3951993)
(0.5395235 0 0.04942502)
(1.687944 -1.247424e-020 0.1851999)
(2.161949 0 -0.0450586)
(2.015452 -2.818055e-019 0.2026132)
(1.05965 0 0.09871831)
(2.175795 0 -0.01204981)
(2.048348 0 0.2081827)
(4.862858 0 -0.03514714)
(5.69869 0 -0.03979918)
(2.000147 -3.511023e-019 0.2548625)
(2.632584 0 -0.01210343)
(2.207827 0 -0.005653003)
(2.17666 6.890178e-021 -0.006150094)
(1.739804 -1.266308e-020 -0.3335026)
(2.174777 0 -0.006238078)
(1.57804 -1.827629e-018 0.1506364)
(1.534219 -5.441675e-018 -0.3071813)
(0.03392242 0 0.002965702)
(2.174277 -1.700612e-018 -0.006556744)
(1.982817 0 0.1953262)
(1.954905 0 0.262256)
(1.645713 0 -0.0004265307)
(0.1688314 1.982466e-018 0.01519895)
(2.029341 5.231039e-018 0.232455)
(2.173709 0 -0.006797957)
(0.5130833 7.686181e-019 0.04728657)
(2.044474 0 0.2003069)
(2.17158 -3.03645e-018 -0.01326898)
(1.028083 -6.665029e-019 0.09634321)
(2.041129 5.664663e-018 0.2090964)
(1.905425 0 0.2244171)
(1.948928 0 0.1886396)
(1.559208 -2.219489e-018 0.148087)
(2.038286 -1.413615e-018 0.1955863)
(0.03089575 0 0.002684986)
(1.781392 -3.078625e-018 -0.1677245)
(0.1578361 5.367972e-020 0.01421233)
(0.4891126 -6.186586e-019 0.04529247)
(4.898658 0 -0.03540363)
(5.732791 0 -0.03998968)
(2.632624 2.078992e-018 -0.01189893)
(2.200531 -2.111511e-025 -0.005197306)
(2.168549 0 -0.00545721)
(2.166686 -8.739131e-019 -0.005207608)
(0.9966356 2.042865e-019 0.09414032)
(2.045344 0 0.1922021)
(2.166257 0 -0.005116705)
(1.92612 3.05862e-018 0.1830242)
(2.030159 0 0.1912976)
(2.165826 0 -0.004987935)
(1.994677 4.62935e-018 0.2162196)
(1.534301 -4.528851e-021 0.1457143)
(2.160042 0 -0.01515982)
(2.017932 2.001737e-020 0.2055328)
(0.03002738 0 0.002727068)
(2.163934 0 -0.004752776)
(0.1514545 -1.295834e-019 0.01409901)
(2.139171 0 -0.04205371)
(0.4725771 1.043612e-018 0.04471047)
(2.021666 0 0.1866396)
(1.906555 0 0.1790793)
(2.031488 0 0.1890564)
(2.160549 0 -0.00434941)
(0.9735931 -2.735547e-018 0.09347643)
(1.871527 0 -0.2355851)
(2.046069 -2.977951e-018 0.1801434)
(1.800995 0 -0.1202869)
(1.511519 2.046808e-019 0.1438532)
(4.934578 0 -0.03568595)
(5.767361 4.31129e-018 -0.04019497)
(1.854025 5.847363e-018 0.1329871)
(2.633345 -2.137347e-018 -0.01168837)
(2.193837 -1.020244e-018 -0.004749037)
(2.161008 0 -0.004792028)
(2.15915 0 -0.004241838)
(1.763327 -2.51482e-018 0.07639272)
(2.158755 0 -0.003778877)
(0.02618971 0 0.00253931)
(2.073034 1.753789e-018 -0.1260035)
(2.157112 3.096618e-018 -0.003855238)
(2.158297 0 -0.003263721)
(0.141862 0 0.01387421)
(2.012416 -1.646971e-018 0.1829227)
(2.038204 8.876433e-018 0.1758433)
(0.4549653 0 0.0444935)
(1.886028 0 0.1745944)
(0.9524549 0 0.09391202)
(1.984964 0 0.1877669)
(1.519527 -1.60592e-020 0.1457168)
(2.010016 0 0.1818086)
(2.04622 0 0.1720219)
(2.142929 0 -0.01482992)
(2.006389 3.240884e-018 0.1784742)
(4.970579 0 -0.03595926)
(5.80247 -7.756275e-020 -0.04040044)
(1.93296 0 0.1678727)
(2.634831 8.339086e-021 -0.01150335)
(2.187689 -1.139746e-019 -0.004343208)
(2.041597 -4.399758e-018 0.1652819)
(2.153976 0 -0.00418453)
(2.0225 0 0.1705142)
(1.850256 0 0.1700784)
(2.152127 -9.019963e-019 -0.003357264)
(2.151772 0 -0.002547691)
(0.02141454 0 0.001888517)
(2.151418 -8.899651e-019 -0.001679527)
(0.1266616 -2.188004e-019 0.01148879)
(1.790435 3.361739e-018 -0.0390134)
(2.044347 -5.526967e-022 0.1717976)
(0.4277373 2.2931e-018 0.03954127)
(2.149902 -1.408987e-020 -2.286759e-005)
(1.991291 0 0.1742259)
(0.9180151 -2.626123e-019 0.08539575)
(2.030794 -2.02438e-018 0.160461)
(1.655366 0 -0.2401919)
(1.537156 0 0.1413609)
(1.561768 1.300624e-017 -0.2468639)
(2.147243 -3.289912e-018 0.001666123)
(2.097724 0 -0.06506865)
(0.0213973 0 0.001772592)
(2.047813 -1.503652e-018 0.1641511)
(2.04406 0 0.1570517)
(2.033485 0 -0.1435969)
(0.1232042 -4.183476e-019 0.01058331)
(1.743309 0 -0.239006)
(2.041648 0 0.1689865)
(5.006809 0 -0.03621453)
(1.686839 0 -0.1934208)
(5.83797 0 -0.0406114)
(2.636752 0 -0.01136353)
(0.4186722 2.096483e-018 0.0368359)
(2.182024 0 -0.003996097)
(2.147422 1.79678e-018 -0.003650571)
(2.145575 0 -0.002560886)
(1.949647 1.144037e-018 0.1715857)
(2.144626 -3.128148e-018 0.003062091)
(1.853633 0 0.06188279)
(2.145248 0 -0.001432448)
(0.9045696 5.413579e-018 0.07960414)
(2.035195 0 0.1512571)
(2.144857 0 -0.0002173786)
(1.907028 0 0.1282947)
(1.459764 0 0.1291536)
(2.125825 -2.183659e-023 -0.01409732)
(2.048113 2.698277e-018 0.1603766)
(2.036658 3.013697e-018 0.1685899)
(0.02079032 0 0.001757079)
(1.880322 0 -0.1127868)
(0.1207667 0 0.01037528)
(1.931418 -5.084649e-018 -0.1663438)
(1.911943 -5.440004e-021 0.1669312)
(0.4110017 0 0.03562724)
(0.8936587 0 0.07715648)
(2.046464 1.475137e-022 0.1499634)
(1.839446 -1.68952e-018 0.01790343)
(5.043284 0 -0.03648762)
(2.039069 0 0.1437856)
(5.87372 0 -0.04084049)
(2.638927 0 -0.01123083)
(2.176793 0 -0.003665152)
(2.136877 0 0.00531476)
(1.458153 0 0.1251266)
(2.141299 0 -0.003154865)
(1.984721 -2.958982e-018 0.1416704)
(2.047757 0 0.1587255)
(2.139441 3.650116e-018 -0.00183979)
(2.139141 1.830689e-018 -0.0004393436)
(2.138835 0 0.001051801)
(2.031167 2.280754e-020 0.1671143)
(0.02070261 0 0.001621796)
(2.137557 0 0.003940626)
(1.894151 -1.920807e-018 0.1589474)
(1.950514 0 0.1286462)
(0.1186601 0 0.009521491)
(2.010148 -2.7746e-018 0.1377845)
(1.895006 0 -0.08957102)
(0.4026305 0 0.03293663)
(2.135349 3.526953e-018 0.006762705)
(0.8799364 0 0.07226367)
(2.047938 2.656767e-018 0.1575933)
(1.446798 3.682343e-018 0.1184567)
(2.025517 0 0.1617711)
(2.041992 7.456832e-018 0.1370449)
(2.133076 0 0.009267849)
(5.079843 0 -0.03678801)
(5.909834 -2.307027e-018 -0.04107989)
(2.641615 2.173105e-018 -0.01107711)
(2.171967 1.882443e-018 -0.003319926)
(2.135545 0 -0.002658523)
(2.049085 0 0.1440244)
(2.133669 0 -0.001144618)
(2.133379 0 0.0005052863)
(2.124796 4.464893e-018 0.007767672)
(2.133051 0 0.002226922)
(1.880403 0 0.150832)
(0.02242632 0 0.001584147)
(0.1204435 0 0.008796775)
(2.048954 -2.44557e-018 0.1539247)
(0.3993126 0 0.03005666)
(0.8711842 0 0.06651211)
(2.024872 -3.718902e-018 0.125301)
(1.931704 -5.908454e-020 0.09291758)
(1.436257 -5.930285e-018 0.1103755)
(2.021334 0 0.1553396)
(1.884809 0 0.02767437)
(1.881396 -9.438469e-022 -0.04412343)
(1.869515 -2.848752e-019 0.1415258)
(5.11646 0 -0.03707862)
(5.94644 2.172255e-019 -0.04131534)
(2.644965 6.978965e-020 -0.01093785)
(2.167527 -5.922852e-020 -0.002999004)
(2.13013 0 -0.002195157)
(0.02325277 0 0.001582656)
(2.128244 2.760324e-018 -0.0004947562)
(2.045246 -1.80272e-018 0.1314325)
(2.050033 -2.402079e-018 0.1494312)
(2.127973 0 0.001392471)
(0.1198644 4.378161e-019 0.008372539)
(2.047824 0 -0.09175693)
(2.127718 1.839569e-018 0.00338606)
(0.3939236 -7.638173e-019 0.02809948)
(2.052279 6.862287e-021 0.1383108)
(0.8625895 3.266002e-018 0.06260937)
(2.126663 4.141404e-018 0.007255776)
(2.018398 0 0.1475109)
(1.425657 0 0.1040328)
(2.112826 0 0.009415414)
(1.989044 4.838614e-018 0.1100041)
(1.713612 8.979939e-018 -0.1612954)
(2.124839 -1.697503e-018 0.0110341)
(1.662802 -5.022965e-018 -0.1564613)
(1.854723 0 0.1320858)
(2.051221 1.497226e-021 0.1432695)
(1.773915 0 -0.1701558)
(0.02108995 0 0.001492909)
(2.123081 0 0.01436852)
(0.1141671 0 0.008206793)
(1.781469 -2.652873e-018 -0.1196263)
(2.005464 -2.013589e-018 0.1108402)
(2.095418 1.118033e-020 -0.01001809)
(5.153294 0 -0.03735067)
(5.983405 0 -0.04155256)
(2.648663 0 -0.01083265)
(0.3814943 0 0.02753071)
(2.16343 0 -0.002718071)
(2.125047 3.702398e-018 -0.001781285)
(2.123148 1.858652e-018 9.809208e-005)
(2.122892 6.143822e-020 0.002206199)
(1.89729 0 -0.00636455)
(0.8465925 0 0.06213666)
(2.033758 0 0.1140365)
(2.012416 0 0.1386437)
(2.122612 0 0.004415106)
(1.436798 0 0.1039926)
(2.048344 0 0.1255496)
(2.065093 3.935431e-019 -0.04802588)
(1.93617 -2.652164e-018 -0.07132286)
(2.014149 0 -0.1011833)
(2.051625 0 0.136824)
(1.819722 2.843851e-018 0.1245916)
(2.054952 1.597041e-020 0.130498)
(2.117671 5.492025e-018 0.0198932)
(1.996156 0 0.1299822)
(2.018979 -1.035472e-021 0.1031448)
(5.190353 0 -0.03764064)
(6.020631 -6.249692e-025 -0.04180074)
(2.652578 2.266783e-018 -0.01072158)
(2.159637 -1.902936e-018 -0.002437792)
(2.120267 0 -0.001384393)
(0.01574933 0 0.0009052605)
(2.118349 -1.866552e-018 0.0006430739)
(1.855146 -1.286277e-017 -0.1431705)
(0.09779103 1.427582e-018 0.005790789)
(2.118111 0 0.002935619)
(2.117898 0 0.005359311)
(0.3532739 -2.248766e-020 0.02129363)
(1.945999 -3.506529e-019 -0.06061452)
(0.8126704 1.319438e-018 0.04978411)
(2.048619 -1.412926e-018 0.1302436)
(2.117013 0 0.01008717)
(1.468508 -7.081934e-019 0.09381121)
(2.11548 0 0.01468519)
(2.051268 0 0.1193471)
(1.951912 0 0.1238178)
(1.916292 -1.068063e-018 0.006773379)
(0.01391742 0 0.0005780129)
(2.108871 2.755494e-022 0.02452272)
(0.09084193 9.007855e-019 0.004256995)
(0.3397899 -1.031778e-018 0.01734807)
(2.11389 -1.636596e-018 0.01887983)
(0.7952379 1.103652e-018 0.04243727)
(5.227461 0 -0.03792834)
(6.058326 -2.315656e-018 -0.0420453)
(2.657113 2.352622e-018 -0.01061415)
(2.156168 1.793957e-018 -0.002168942)
(2.115754 0 -0.00100365)
(2.042053 1.359863e-018 0.1268043)
(2.113817 0 0.001162341)
(1.38068 -1.279458e-019 0.08055562)
(2.113588 -1.872066e-018 0.003630296)
(1.987616 0 0.08622956)
(2.055689 0 0.1217293)
(2.113361 0 0.00618854)
(1.933729 -1.007962e-018 -0.03675065)
(2.040277 0 0.1037612)
(2.027949 0 0.09504723)
(1.906687 2.384616e-020 0.1192596)
(2.003042 0 0.08935133)
(0.01475077 0 0.0006624774)
(0.09143215 4.749574e-021 0.00438799)
(1.934522 0 0.03717265)
(0.3372433 3.412837e-019 0.01734662)
(0.7899537 1.641435e-018 0.04271581)
(2.034565 -5.328636e-019 0.1252786)
(1.386111 0 0.07978542)
(2.100015 7.541446e-019 0.02693906)
(2.052916 0 0.1124826)
(5.264835 0 -0.03819103)
(6.096355 0 -0.04228627)
(2.661899 4.582412e-018 -0.01054319)
(2.152984 1.913799e-018 -0.001943152)
(2.111523 0 -0.0006683106)
(2.109566 9.542947e-020 0.001641916)
(2.109346 0 0.004287536)
(2.109175 0 0.007068245)
(1.911712 0 -0.1100131)
(1.886019 -7.99459e-019 0.1132806)
(2.108447 -1.457751e-020 0.01247633)
(2.014286 -8.891599e-021 0.08443519)
(0.01412578 0 0.0006837408)
(1.965379 -1.850773e-018 0.06155519)
(0.08863374 0 0.00443069)
(0.3292678 1.045457e-018 0.01704433)
(1.936369 -5.060955e-023 -0.0139635)
(2.107172 0 0.01772556)
(1.767391 0 -0.1073927)
(0.7775219 8.172243e-019 0.04166496)
(2.023822 0 0.1210699)
(1.739114 0 -0.09770364)
(2.055499 0 0.1158126)
(1.375675 4.302492e-019 0.07739355)
(1.804367 0 -0.1161332)
(2.105959 1.115761e-017 0.02251044)
(1.842948 0 -0.07176215)
(2.068993 0 -0.006744608)
(5.302503 0 -0.03846658)
(6.134592 0 -0.04253981)
(2.666765 0 -0.01047336)
(2.150078 0 -0.001719933)
(2.107582 7.549616e-021 -0.0003445593)
(1.867267 1.412501e-022 0.1086177)
(2.105595 1.875526e-018 0.002097338)
(2.105374 1.899134e-018 0.004906294)
(2.105172 7.300287e-021 0.007814849)
(0.01293418 0 0.0006003368)
(0.08333206 0 0.004045005)
(1.965752 0 -0.04467323)
(0.3155944 0 0.01610678)
(2.034626 -9.185056e-022 0.08663123)
(2.014843 1.049198e-019 0.116877)
(2.054541 -1.364119e-018 0.1070815)
(0.7558812 0 0.04030062)
(2.102058 5.566733e-018 0.03072755)
(1.354051 8.625519e-019 0.07580278)
(2.022967 5.293463e-022 0.07927891)
(2.045694 -2.004305e-020 0.09367999)
(1.942501 -8.637362e-021 -0.0018721)
(1.850177 0 0.1062853)
(5.340321 0 -0.03876193)
(6.173156 0 -0.04280017)
(2.671996 0 -0.01038202)
(2.147466 0 -0.001474319)
(2.1039 -9.398116e-019 -8.686003e-006)
(1.971443 -3.506271e-019 -0.04019019)
(2.101876 -1.879623e-018 0.002541459)
(2.101656 0 0.005488002)
(0.0122974 0 0.0005944811)
(2.1015 0 0.008580851)
(0.07970139 -1.149143e-018 0.003956099)
(2.056325 2.304586e-021 0.1116114)
(0.3045392 7.877617e-019 0.0157762)
(2.006068 0 0.1141944)
(2.100861 0 0.01459905)
(0.7366161 -4.986977e-018 0.03958612)
(2.095532 0 0.03735181)
(1.333249 -1.287978e-018 0.07481051)
(2.099753 7.201039e-018 0.0204362)
(2.081462 -3.203938e-018 0.02889687)
(2.098634 0 0.02571996)
(1.835845 0 0.1047718)
(1.962466 0 -0.02830254)
(2.057408 -1.344076e-018 0.1017935)
(0.01144196 0 0.0005647178)
(5.378289 0 -0.03906772)
(6.212098 -5.140097e-018 -0.04305868)
(2.677629 -3.470093e-018 -0.01027158)
(2.145119 -8.930053e-019 -0.001211207)
(2.100443 0 0.0003401183)
(2.098386 0 0.002985699)
(0.07536418 6.442533e-019 0.003850572)
(2.098163 0 0.006058918)
(2.002016 -1.194891e-018 0.1118652)
(0.2923175 -4.410358e-018 0.01560943)
(2.097981 0 0.009223519)
(0.7162832 2.403633e-023 0.03921769)
(1.31088 0 0.07419185)
(2.088877 0 0.04178952)
(2.029105 0 0.07221104)
(1.821073 -8.602446e-019 0.1037164)
(2.04019 -3.125826e-018 0.07787915)
(1.958575 -2.119264e-021 0.02792467)
(2.055357 0 0.0914879)
(2.05873 0 0.1057392)
(0.01039852 0 0.0005326942)
(0.07015787 1.933531e-018 0.003761309)
(1.996101 0 0.109904)
(5.416348 0 -0.03935889)
(6.251547 -7.544949e-020 -0.04330895)
(2.683862 -1.335682e-019 -0.01017474)
(2.143053 0 -0.0009686426)
(1.960888 0 -0.01533921)
(2.09721 8.934672e-028 0.0006672671)
(0.2787275 -4.410358e-018 0.01540065)
(2.09513 1.547606e-020 0.003408739)
(2.094913 0 0.006608714)
(0.6949876 9.32056e-019 0.03841195)
(2.094777 1.852952e-018 0.009961974)
(1.992651 -7.988635e-021 0.05744696)
(1.286751 -9.717541e-019 0.07277838)
(2.094226 3.705735e-018 0.01648917)
(2.093265 0 0.02284773)
(1.80446 -1.943876e-018 0.102072)
(1.812953 0 -0.07136299)
(2.061118 0 0.09592219)
(1.797554 -1.563637e-018 -0.06191203)
(2.051417 1.648517e-019 0.0835412)
(1.836262 -1.348354e-021 -0.08002954)
(2.092413 3.252444e-018 0.02868345)
(0.00897858 0 0.0004758504)
(1.992117 -1.17848e-020 0.1075726)
(1.883594 6.254452e-018 -0.04426165)
(0.06411477 0 0.003517349)
(0.265181 0 0.01456153)
(5.454692 0 -0.03962414)
(6.291349 0 -0.04355599)
(0.6749788 0 0.03641952)
(2.69033 0 -0.01011413)
(2.14124 0 -0.0007668935)
(2.094227 -9.274787e-019 0.0009510259)
(1.956635 2.329566e-018 0.0106391)
(2.09212 3.095212e-020 0.003795214)
(2.091903 0 0.007121527)
(1.262035 -1.322572e-021 0.07008242)
(2.091736 0 0.01055088)
(1.96181 0 -0.007492058)
(2.00837 -2.041933e-018 0.05714842)
(1.980239 -2.738601e-019 -0.02919723)
(1.982616 2.359336e-022 0.04736226)
(2.089568 3.251932e-018 0.03876678)
(2.058348 -2.445145e-018 0.08669505)
(1.785501 0 0.09910975)
(2.061855 0 0.09877112)
(1.877186 -1.170097e-020 -0.07810318)
(1.985449 0 0.1043006)
(0.01038988 0 0.0005436773)
(2.034716 0 0.06543915)
(0.06655399 1.937513e-019 0.00345274)
(0.2651909 3.239413e-019 0.01384165)
(1.984081 0 -0.02732218)
(0.6672123 3.883699e-019 0.03557242)
(5.493346 0 -0.03990379)
(6.331373 -6.521385e-025 -0.04381395)
(2.696863 -1.157869e-018 -0.01004502)
(1.241559 -1.586689e-018 0.06887625)
(2.139667 -9.447248e-019 -0.000553015)
(2.091495 0 0.001237798)
(2.089348 1.851029e-018 0.004168504)
(2.061266 0 0.02722014)
(2.084647 0 0.04681002)
(2.089129 0 0.007602146)
(2.088998 0 0.01119394)
(2.054665 0 0.07832226)
(2.064314 2.756749e-018 0.08874217)
(1.971505 0 -0.06935532)
(2.088498 0 0.01818782)
(1.76027 -1.531278e-018 0.09493707)
(2.04515 -1.723004e-018 0.06885005)
(2.087638 0 0.02500953)
(1.983569 -4.321034e-018 0.0984849)
(0.01519461 0 0.0008560206)
(0.08046793 -2.437246e-018 0.004241523)
(2.086781 6.453266e-018 0.03123795)
(1.977965 -4.218575e-019 -0.02146333)
(0.2824304 4.715013e-019 0.01493125)
(0.6762536 -1.512237e-019 0.03835279)
(2.057033 0 0.09321444)
(1.262207 0 0.07240004)
(2.061007 0 0.08000783)
(2.007852 1.755606e-018 -0.02780697)
(5.532133 0 -0.04020665)
(6.371776 -2.757467e-018 -0.0440729)
(2.703814 -2.315699e-018 -0.009940127)
(2.138352 -8.754862e-019 -0.000301631)
(2.079718 -9.988355e-024 0.05190205)
(2.088974 0 0.001557012)
(2.086786 0 0.004555083)
(1.981861 0 -0.06139361)
(2.086557 0 0.008082187)
(2.086398 0 0.01170237)
(1.715356 3.260773e-018 0.08899513)
(2.06412 0 0.08871287)
(1.913486 0 -0.06488178)
(1.969943 2.457752e-020 0.08998688)
(1.975569 4.259263e-019 -0.01401012)
(2.056741 2.997047e-022 0.07204597)
(2.051253 0 0.0872398)
(2.065059 -2.563288e-018 0.08007677)
(0.01814704 0 0.0006549408)
(0.08597286 -3.491689e-020 0.0034073)
(0.2793077 -7.745738e-019 0.01187607)
(5.571028 0 -0.04049196)
(6.412698 -1.669619e-019 -0.04431884)
(2.711359 0 -0.009844885)
(2.137299 -5.818746e-020 -6.610977e-005)
(2.08665 -2.740998e-018 0.001861692)
(2.020601 -6.478501e-021 0.05027135)
(2.062395 0 0.08246723)
(2.084432 1.854531e-018 0.004929999)
(0.6552916 1.932993e-018 0.02924822)
(2.084204 0 0.008552546)
(2.084079 -9.06845e-019 0.01233796)
(1.317438 0 0.0622993)
(2.083626 -1.411585e-020 0.01971035)
(2.03904 -3.460164e-018 0.05730734)
(1.905132 -6.306634e-018 0.0846736)
(2.082858 3.332715e-018 0.02692268)
(1.850011 0 -0.04709775)
(2.06185 -2.156864e-018 0.07253304)
(1.841889 1.86994e-021 -0.04086849)