1.19904E-4 1.0
2.63651E-4 0.01635967
4.36346E-4 0.008527983
6.43726E-4 0.006043641
8.93E-4 0.004832214
0.00119243 0.004112124
0.00154869 0.003594424
0.00196281 0.003147577
0.00243376 0.002755109
0.00296227 0.002424845
0.00351566 0.002022586
0.00407571 0.001671014
0.00464976 0.001432165
0.00523118 0.001235517
0.00581259 0.001067227
0.00640176 9.481768E-4
0.00699092 8.420718E-4
0.00758009 7.572433E-4
0.00817755 6.972932E-4
0.00877501 6.382278E-4
0.00937248 5.886337E-4
0.00997886 5.544463E-4
0.0105852 5.168204E-4
0.0112011 4.918954E-4
0.011817 4.624525E-4
0.0124429 4.439248E-4
0.0130689 4.194128E-4
0.0136948 3.975628E-4
0.0143317 3.848371E-4
0.0149687 3.664435E-4
0.0156056 3.492582E-4
0.0162546 3.401204E-4
0.0169035 3.253119E-4
0.0175525 3.114528E-4
0.0182014 2.985317E-4
0.0188504 2.866021E-4
0.0194993 2.755595E-4
0.0201624 2.708686E-4
0.0208254 2.605343E-4
0.0214885 2.507887E-4
0.0221515 2.416945E-4
0.0228146 2.332625E-4
0.0234777 2.252447E-4
0.0241407 2.183448E-4
0.0248038 2.136188E-4
0.0254668 2.092506E-4
0.0261299 2.050651E-4
0.026793 2.011013E-4
0.0274755 2.031049E-4
0.0281581 1.98957E-4
0.0288406 1.951132E-4
0.0295232 1.911974E-4
0.0302293 1.939718E-4
0.0309354 1.900224E-4
0.0316415 1.86177E-4
0.0323758 1.898875E-4
0.0331102 1.860546E-4
0.0339144 1.999829E-4
0.0347611 2.062209E-4
0.0357135 2.273924E-4
0.0366064 2.078445E-4
0.0374993 2.030182E-4
0.0383327 1.852317E-4
0.0391105 1.687891E-4
0.0398883 1.652998E-4
0.0406661 1.619419E-4
0.0413841 1.463875E-4
0.0421021 1.435878E-4
0.0428201 1.409468E-4
0.0435381 1.382564E-4
0.0442561 1.357087E-4
0.0449741 1.331279E-4
0.0456921 1.306255E-4
0.0464101 1.281826E-4
0.047128 1.259031E-4
0.047846 1.23499E-4
0.048564 1.212577E-4
0.049282 1.190619E-4
0.05 1.169357E-4
0.0507937 1.271189E-4
0.0516003 1.267034E-4
0.0524206 1.264063E-4
0.053241 1.239425E-4
0.054076 1.236679E-4
0.0549109 1.212077E-4
0.0557617 1.211278E-4
0.0566291 1.212199E-4
0.0574965 1.187745E-4
0.058382 1.188874E-4
0.0592675 1.165348E-4
0.0601727 1.168236E-4
0.0610989 1.171315E-4
0.0620251 1.147987E-4
0.0629513 1.125954E-4
0.0638775 1.103485E-4
0.0648037 1.08236E-4
0.065755 1.090081E-4
0.0667062 1.068553E-4
0.0676575 1.046996E-4
0.0686087 1.0276E-4
0.0695897 1.039948E-4
0.0705707 1.019736E-4
0.07152 9.675109E-5
0.0724694 9.495002E-5
0.0734187 9.304623E-5
0.074368 9.137613E-5
0.0753174 8.963771E-5
0.0762667 8.803633E-5
0.077216 8.645744E-5
0.0781654 8.498258E-5
0.0791147 8.34339E-5
0.080064 8.192691E-5
0.0810134 8.048869E-5
0.0820127 8.328936E-5
0.083012 8.176639E-5
0.0840112 8.027267E-5
0.0850105 7.886417E-5
0.0860098 7.749391E-5
0.0870091 7.613553E-5
0.0880917 8.1153E-5
0.0891743 7.970289E-5
0.0902569 7.82856E-5
0.0913394 7.688574E-5
0.092422 7.552935E-5
0.0935046 7.419787E-5
0.0945871 7.291177E-5
0.0956697 7.166837E-5
0.0967523 7.048571E-5
0.0978349 6.931986E-5
0.0989174 6.814365E-5
