1.19904E-4 7.355733E-5
2.63651E-4 8.518389E-5
4.36346E-4 9.511244E-5
6.43726E-4 1.131005E-4
8.93E-4 1.344603E-4
0.00119243 1.593475E-4
0.00154869 1.8651E-4
0.00196281 2.126954E-4
0.00243376 2.36539E-4
0.00296227 2.584762E-4
0.00351566 2.631698E-4
0.00407571 2.589531E-4
0.00464976 2.581416E-4
0.00523118 2.545354E-4
0.00581259 2.47481E-4
0.00640176 2.440713E-4
0.00699092 2.380747E-4
0.00758009 2.321218E-4
0.00817755 2.295282E-4
0.00877501 2.241613E-4
0.00937248 2.190482E-4
0.00997886 2.174187E-4
0.0105852 2.126539E-4
0.0112011 2.11607E-4
0.011817 2.074307E-4
0.0124429 2.065498E-4
0.0130689 2.023153E-4
0.0136948 1.98013E-4
0.0143317 1.976826E-4
0.0149687 1.935695E-4
0.0156056 1.896023E-4
0.0162546 1.897221E-4
0.0169035 1.860808E-4
0.0175525 1.824632E-4
0.0182014 1.788682E-4
0.0188504 1.755771E-4
0.0194993 1.724479E-4
0.0201624 1.728763E-4
0.0208254 1.696017E-4
0.0214885 1.664296E-4
0.0221515 1.634539E-4
0.0228146 1.605102E-4
0.0234777 1.575934E-4
0.0241407 1.548185E-4
0.0248038 1.520628E-4
0.0254668 1.493365E-4
0.0261299 1.467636E-4
0.026793 1.442847E-4
0.0274755 1.45907E-4
0.0281581 1.43251E-4
0.0288406 1.407919E-4
0.0295232 1.38293E-4
0.0302293 1.404656E-4
0.0309354 1.379215E-4
0.0316415 1.355584E-4
0.0323758 1.38517E-4
0.0331102 1.360061E-4
0.0339144 1.463819E-4
0.0347611 1.511596E-4
0.0357135 1.666733E-4
0.0366064 1.528734E-4
0.0374993 1.496005E-4
0.0383327 1.369493E-4
0.0391105 1.252342E-4
0.0398883 1.227882E-4
0.0406661 1.207781E-4
0.0413841 1.095196E-4
0.0421021 1.077417E-4
0.0428201 1.060694E-4
0.0435381 1.043974E-4
0.0442561 1.027409E-4
0.0449741 1.011252E-4
0.0456921 9.958553E-5
0.0464101 9.814221E-5
0.047128 9.66583E-5
0.047846 9.513611E-5
0.048564 9.370392E-5
0.049282 9.229467E-5
0.05 9.098606E-5
0.0507937 9.92013E-5
0.0516003 9.918425E-5
0.0524206 9.926847E-5
0.053241 9.767534E-5
0.054076 9.77521E-5
0.0549109 9.622014E-5
0.0557617 9.651668E-5
0.0566291 9.691128E-5
0.0574965 9.53106E-5
0.058382 9.565208E-5
0.0592675 9.417241E-5
0.0601727 9.475525E-5
0.0610989 9.532648E-5
0.0620251 9.368813E-5
0.0629513 9.223498E-5
0.0638775 9.082094E-5
0.0648037 8.921634E-5
0.065755 9.005388E-5
0.0667062 8.862194E-5
0.0676575 8.722749E-5
0.0686087 8.595703E-5
0.0695897 8.719272E-5
0.0705707 8.568688E-5
0.07152 8.16219E-5
0.0724694 8.031565E-5
0.0734187 7.902552E-5
0.074368 7.789462E-5
0.0753174 7.666538E-5
0.0762667 7.553902E-5
0.077216 7.446178E-5
0.0781654 7.338783E-5
0.0791147 7.221509E-5
0.080064 7.111368E-5
0.0810134 7.012136E-5
0.0820127 7.273327E-5
0.083012 7.164886E-5
0.0840112 7.057466E-5
0.0850105 6.952815E-5
0.0860098 6.853156E-5
0.0870091 6.75108E-5
0.0880917 7.212817E-5
0.0891743 7.104569E-5
0.0902569 7.003203E-5
0.0913394 6.894391E-5
0.092422 6.781364E-5
0.0935046 6.677144E-5
0.0945871 6.582306E-5
0.0956697 6.489116E-5
0.0967523 6.404934E-5
0.0978349 6.308251E-5
0.0989174 6.213325E-5
