1.19904E-4 1.0
2.63651E-4 0.001478896
4.36346E-4 4.997146E-4
6.43726E-4 2.260743E-4
8.93E-4 1.635154E-4
0.00119243 1.362713E-4
0.00154869 1.259798E-4
0.00196281 1.22734E-4
0.00243376 1.248818E-4
0.00296227 1.363382E-4
0.00351566 1.413969E-4
0.00407571 1.363697E-4
0.00464976 1.375654E-4
0.00523118 1.266953E-4
0.00581259 1.28494E-4
0.00640176 1.228458E-4
0.00699092 1.142831E-4
0.00758009 1.210732E-4
0.00817755 1.230518E-4
0.00877501 1.219877E-4
0.00937248 1.172692E-4
0.00997886 1.139686E-4
0.0105852 1.241334E-4
0.0112011 1.20803E-4
0.011817 1.213804E-4
0.0124429 1.209413E-4
0.0130689 1.236051E-4
0.0136948 1.209083E-4
0.0143317 1.178653E-4
0.0149687 1.164135E-4
0.0156056 1.175915E-4
0.0162546 1.159397E-4
0.0169035 1.255495E-4
0.0175525 1.260803E-4
0.0182014 1.270384E-4
0.0188504 1.271521E-4
0.0194993 1.259565E-4
0.0201624 1.248001E-4
0.0208254 1.22159E-4
0.0214885 1.200241E-4
0.0221515 1.171543E-4
0.0228146 1.150905E-4
0.0234777 1.214722E-4
0.0241407 1.250054E-4
0.0248038 1.258506E-4
0.0254668 1.240576E-4
0.0261299 1.217741E-4
0.026793 1.198639E-4
0.0274755 1.224963E-4
0.0281581 1.195795E-4
0.0288406 1.229119E-4
0.0295232 1.213736E-4
0.0302293 1.288882E-4
0.0309354 1.283938E-4
0.0316415 1.28071E-4
0.0323758 1.373034E-4
0.0331102 1.326177E-4
0.0339144 1.621512E-4
0.0347611 1.626595E-4
0.0357135 1.923752E-4
0.0366064 1.77623E-4
0.0374993 1.640483E-4
0.0383327 1.646136E-4
0.0391105 1.530326E-4
0.0398883 1.395897E-4
0.0406661 1.389124E-4
0.0413841 1.411517E-4
0.0421021 1.257406E-4
0.0428201 1.283083E-4
0.0435381 1.283054E-4
0.0442561 1.299862E-4
0.0449741 1.296607E-4
0.0456921 1.300367E-4
0.0464101 1.302147E-4
0.047128 1.298689E-4
0.047846 1.297716E-4
0.048564 1.308946E-4
0.049282 1.296496E-4
0.05 1.324516E-4
0.0507937 1.632969E-4
0.0516003 1.508169E-4
0.0524206 1.542528E-4
0.053241 1.52588E-4
0.054076 1.559487E-4
0.0549109 1.525293E-4
0.0557617 1.59725E-4
0.0566291 1.618137E-4
0.0574965 1.614903E-4
0.058382 1.662561E-4
0.0592675 1.647525E-4
0.0601727 1.695846E-4
0.0610989 1.734112E-4
0.0620251 1.70546E-4
0.0629513 1.707972E-4
0.0638775 1.71323E-4
0.0648037 1.719235E-4
0.065755 1.810028E-4
0.0667062 1.779069E-4
0.0676575 1.797E-4
0.0686087 1.816384E-4
0.0695897 1.923909E-4
0.0705707 1.897368E-4
0.07152 1.86153E-4
0.0724694 1.845968E-4
0.0734187 1.853256E-4
0.074368 1.853329E-4
0.0753174 1.8719E-4
0.0762667 1.890844E-4
0.077216 1.917465E-4
0.0781654 1.929558E-4
0.0791147 1.947783E-4
0.080064 1.961027E-4
0.0810134 1.975776E-4
0.0820127 2.155451E-4
0.083012 2.109032E-4
0.0840112 2.122927E-4
0.0850105 2.130391E-4
0.0860098 2.140711E-4
0.0870091 2.1289E-4
0.0880917 2.422481E-4
0.0891743 2.344873E-4
0.0902569 2.336823E-4
0.0913394 2.325745E-4
0.092422 2.324003E-4
0.0935046 2.317551E-4
0.0945871 2.335144E-4
0.0956697 2.345275E-4
0.0967523 2.33608E-4
0.0978349 2.318256E-4
0.0989174 2.314907E-4
