
10549
(
(-9.757573 0 -1.846153)
(-9.878786 0 -1.923077)
(-9.515145 0 -1.846153)
(-9.393932 0 -1.923077)
(-9.151504 0 -1.846153)
(-9.030291 0 -1.923076)
(-8.787863 0 -1.846153)
(-8.666649 0 -1.923076)
(-8.424221 0 -1.846152)
(-8.303007 0 -1.923076)
(-8.060579 0 -1.846151)
(-7.939364 0 -1.923075)
(-7.696935 0 -1.84615)
(-7.57572 0 -1.923074)
(-7.33329 0 -1.846148)
(-7.212075 0 -1.923073)
(-6.848428 0 -1.846145)
(-6.969643 0 -1.923073)
(-6.484779 0 -1.846141)
(-6.605995 0 -1.923072)
(-6.121128 0 -1.846135)
(-6.242345 0 -1.923069)
(-5.757475 0 -1.846128)
(-5.878693 0 -1.923066)
(-5.39382 0 -1.846118)
(-5.515038 0 -1.923062)
(-5.030162 0 -1.846104)
(-5.151382 0 -1.923056)
(-9.757573 0 -1.692307)
(-9.878786 0 -1.615383)
(-9.393932 0 -1.692306)
(-9.515146 0 -1.615383)
(-9.030291 0 -1.692306)
(-9.151505 0 -1.615383)
(-8.787864 0 -1.615382)
(-8.66665 0 -1.692305)
(-8.424223 0 -1.61538)
(-8.303008 0 -1.692304)
(-8.06058 0 -1.615378)
(-7.939365 0 -1.692302)
(-7.575722 0 -1.615374)
(-7.696936 0 -1.6923)
(-7.212077 0 -1.615369)
(-7.333291 0 -1.692297)
(-6.84843 0 -1.615363)
(-6.969645 0 -1.692292)
(-6.484782 0 -1.615353)
(-6.605997 0 -1.692285)
(-6.121131 0 -1.615339)
(-6.242347 0 -1.692275)
(-5.757478 0 -1.615321)
(-5.878695 0 -1.692261)
(-5.393821 0 -1.615295)
(-5.51504 0 -1.692243)
(-5.030162 0 -1.615262)
(-5.151382 0 -1.692218)
(-9.757573 0 -1.461537)
(-9.878787 0 -1.384614)
(-9.393933 0 -1.461536)
(-9.515146 0 -1.384613)
(-9.030292 0 -1.461535)
(-9.151506 0 -1.384612)
(-8.666651 0 -1.461534)
(-8.787866 0 -1.384611)
(-8.30301 0 -1.461532)
(-8.424224 0 -1.384609)
(-8.060583 0 -1.384606)
(-7.939368 0 -1.461529)
(-7.575725 0 -1.3846)
(-7.696939 0 -1.461526)
(-7.212081 0 -1.384593)
(-7.333294 0 -1.461521)
(-6.848435 0 -1.384583)
(-6.969649 0 -1.461513)
(-6.484786 0 -1.384569)
(-6.606001 0 -1.461501)
(-6.121136 0 -1.384549)
(-6.242351 0 -1.461485)
(-5.757482 0 -1.384521)
(-5.878698 0 -1.461462)
(-5.393825 0 -1.384483)
(-5.515043 0 -1.461432)
(-5.030164 0 -1.384432)
(-5.151384 0 -1.46139)
(-9.757573 0 -1.230767)
(-9.878787 0 -1.153844)
(-9.393934 0 -1.230767)
(-9.515147 0 -1.153844)
(-9.030294 0 -1.230766)
(-9.151507 0 -1.153843)
(-8.666653 0 -1.230764)
(-8.787867 0 -1.153841)
(-8.303012 0 -1.230761)
(-8.424227 0 -1.153839)
(-7.939371 0 -1.230758)
(-8.060586 0 -1.153836)
(-7.575728 0 -1.230752)
(-7.696944 0 -1.153831)
(-7.212086 0 -1.15382)
(-7.333299 0 -1.230747)
(-6.84844 0 -1.153808)
(-6.969654 0 -1.230737)
(-6.484793 0 -1.153791)
(-6.606007 0 -1.230722)
(-6.121143 0 -1.153766)
(-6.242357 0 -1.230701)
(-5.757489 0 -1.153732)
(-5.878705 0 -1.230672)
(-5.393831 0 -1.153684)
(-5.515048 0 -1.230632)
(-5.030168 0 -1.153619)
(-5.151388 0 -1.230577)
(-9.757574 0 -0.9999979)
(-9.878787 0 -0.923075)
(-9.393935 0 -0.9999973)
(-9.515148 0 -0.9230746)
(-9.030295 0 -0.9999963)
(-9.151509 0 -0.9230737)
(-8.666656 0 -0.9999945)
(-8.78787 0 -0.9230722)
(-8.303016 0 -0.9999919)
(-8.42423 0 -0.92307)
(-7.939375 0 -0.9999879)
(-8.06059 0 -0.9230666)
(-7.575733 0 -0.999982)
(-7.696949 0 -0.9230614)
(-7.21209 0 -0.9999733)
(-7.333307 0 -0.9230538)
(-6.848448 0 -0.9230379)
(-6.96966 0 -0.9999654)
(-6.484801 0 -0.9230195)
(-6.606014 0 -0.9999491)
(-6.121152 0 -0.922993)
(-6.242366 0 -0.9999259)
(-5.7575 0 -0.9229553)
(-5.878714 0 -0.9998927)
(-5.393842 0 -0.922902)
(-5.515058 0 -0.9998462)
(-5.030178 0 -0.9228278)
(-5.151396 0 -0.9997818)
(-9.696968 0 -0.692306)
(-9.818181 0 -0.769229)
(-9.939394 0 -0.6923062)
(-9.33333 0 -0.6923055)
(-9.454542 0 -0.7692286)
(-9.575756 0 -0.6923059)
(-8.969692 0 -0.6923046)
(-9.090904 0 -0.7692278)
(-9.212117 0 -0.6923053)
(-8.606053 0 -0.6923031)
(-8.727265 0 -0.7692264)
(-8.848479 0 -0.6923042)
(-8.242414 0 -0.6923008)
(-8.363626 0 -0.7692242)
(-8.48484 0 -0.6923025)
(-7.878775 0 -0.6922972)
(-7.999986 0 -0.7692208)
(-8.121201 0 -0.6922999)
(-7.515134 0 -0.6922918)
(-7.636346 0 -0.7692158)
(-7.757562 0 -0.6922958)
(-7.151493 0 -0.6922837)
(-7.272704 0 -0.7692083)
(-7.393921 0 -0.6922897)
(-6.78785 0 -0.6922716)
(-6.909062 0 -0.7691971)
(-7.030279 0 -0.6922804)
(-6.424206 0 -0.6922537)
(-6.545417 0 -0.7691805)
(-6.666636 0 -0.6922667)
(-6.060559 0 -0.6922273)
(-6.18177 0 -0.7691564)
(-6.302991 0 -0.6922464)
(-5.696908 0 -0.6921888)
(-5.81812 0 -0.7691213)
(-5.939342 0 -0.6922165)
(-5.333251 0 -0.692133)
(-5.454464 0 -0.7690707)
(-5.57569 0 -0.6921728)
(-9.878787 0 -0.5769218)
(-9.939394 0 -0.5384603)
(-9.575756 0 -0.5384601)
(-9.51515 0 -0.5769215)
(-9.212118 0 -0.5384596)
(-9.151512 0 -0.5769209)
(-8.84848 0 -0.5384587)
(-8.787874 0 -0.5769199)
(-8.484842 0 -0.5384572)
(-8.424236 0 -0.5769183)
(-8.121204 0 -0.5384549)
(-8.060597 0 -0.5769158)
(-7.757565 0 -0.5384514)
(-7.696958 0 -0.5769119)
(-7.393925 0 -0.538446)
(-7.333318 0 -0.5769059)
(-7.030284 0 -0.5384378)
(-6.969677 0 -0.5768969)
(-6.666641 0 -0.5768857)
(-6.606036 0 -0.5384231)
(-6.302997 0 -0.5768667)
(-6.242391 0 -0.5384032)
(-5.93935 0 -0.5768383)
(-5.878744 0 -0.5383737)
(-5.575698 0 -0.5767964)
(-5.515093 0 -0.5383298)
(-2.61288 0 -0.5755345)
(-2.582278 0 -0.497466)
(-2.643323 0 -0.5360448)
(-2.704317 0 -0.5158404)
(-2.308417 0 -0.5776857)
(-2.338653 0 -0.5580255)
(-1.944433 0 -0.5806219)
(-1.974597 0 -0.5611257)
(-1.580409 0 -0.5842674)
(-1.610633 0 -0.5647757)
(-1.246539 0 -0.5688261)
(-1.216326 0 -0.5882083)
(-0.8520738 0 -0.5719084)
(-0.88261 0 -0.5908155)
(-0.5184336 0 -0.5746307)
(-0.4882134 0 -0.594054)
(-0.1220829 0 -0.5974189)
(-0.1530376 0 -0.5780258)
(-9.969697 0 -0.3461529)
(-9.939394 0 -0.3653837)
(-9.60606 0 -0.3461528)
(-9.575756 0 -0.3653835)
(-9.242422 0 -0.3461525)
(-9.212119 0 -0.3653832)
(-8.878785 0 -0.3461518)
(-8.848482 0 -0.3653825)
(-8.515147 0 -0.3461507)
(-8.484844 0 -0.3653814)
(-8.151509 0 -0.346149)
(-8.121206 0 -0.3653796)
(-7.787871 0 -0.3461464)
(-7.757568 0 -0.3653767)
(-7.424232 0 -0.3461422)
(-7.393929 0 -0.3653723)
(-7.060592 0 -0.3653662)
(-7.030289 0 -0.3461351)
(-6.696952 0 -0.365356)
(-6.666649 0 -0.3461248)
(-6.333309 0 -0.3653406)
(-6.303006 0 -0.346109)
(-5.969665 0 -0.3653171)
(-5.939362 0 -0.3460852)
(-5.606017 0 -0.3652819)
(-5.575714 0 -0.3460493)
(-3.038701 0 -0.3366665)
(-3.068934 0 -0.3167443)
(-2.673333 0 -0.3519945)
(-2.657933 0 -0.3140175)
(-2.688537 0 -0.3325933)
(-2.719094 0 -0.3225056)
(-2.329379 0 -0.3498645)
(-2.344728 0 -0.3587928)
(-2.35994 0 -0.3493288)
(-1.988244 0 -0.3624353)
(-1.995796 0 -0.367102)
(-1.624241 0 -0.3696424)
(-1.631732 0 -0.3647848)
(-0.9033445 0 -0.3787362)
(-0.8957028 0 -0.3745186)
(-0.5318859 0 -0.3722141)
(-0.5395113 0 -0.3771611)
(-0.1444953 0 -0.3687753)
(-0.1598175 0 -0.3778444)
(-0.1750208 0 -0.3680313)
(-9.939394 0 -0.1153839)
(-9.969697 0 -0.1346146)
(-9.575757 0 -0.1153838)
(-9.60606 0 -0.1346145)
(-9.21212 0 -0.1153834)
(-9.242423 0 -0.1346142)
(-8.848482 0 -0.1153829)
(-8.878785 0 -0.1346137)
(-8.484845 0 -0.1153819)
(-8.515148 0 -0.1346128)
(-8.121207 0 -0.1153804)
(-8.15151 0 -0.1346113)
(-7.757569 0 -0.115378)
(-7.787872 0 -0.1346089)
(-7.393931 0 -0.1153742)
(-7.424234 0 -0.1346052)
(-7.030292 0 -0.1153682)
(-7.060595 0 -0.1345995)
(-6.696955 0 -0.1345905)
(-6.666651 0 -0.115359)
(-6.333313 0 -0.1345767)
(-6.30301 0 -0.1153448)
(-5.96967 0 -0.1345558)
(-5.939367 0 -0.1153234)
(-5.606024 0 -0.1345245)
(-5.575721 0 -0.1152913)
(-3.060096 0 -0.1040563)
(-3.07521 0 -0.09424071)
(-9.969697 0 0.1153853)
(-9.909091 0 0.1538468)
(-9.848485 0 0.1153853)
(-9.60606 0 0.1153854)
(-9.545454 0 0.153847)
(-9.484847 0 0.1153855)
(-9.242423 0 0.1153857)
(-9.181816 0 0.1538473)
(-9.12121 0 0.1153858)
(-8.878786 0 0.1153862)
(-8.818179 0 0.1538479)
(-8.757573 0 0.1153865)
(-8.515148 0 0.1153871)
(-8.454542 0 0.1538488)
(-8.393936 0 0.1153875)
(-8.151511 0 0.1153885)
(-8.090904 0 0.1538504)
(-8.030298 0 0.1153891)
(-7.787873 0 0.1153907)
(-7.727266 0 0.1538528)
(-7.66666 0 0.1153917)
(-7.424234 0 0.1153942)
(-7.363628 0 0.1538566)
(-7.303022 0 0.1153958)
(-7.060596 0 0.1153997)
(-6.999989 0 0.1538624)
(-6.939382 0 0.1154021)
(-6.696956 0 0.1154081)
(-6.636349 0 0.1538714)
(-6.575743 0 0.1154118)
(-6.333315 0 0.1154208)
(-6.272709 0 0.1538848)
(-6.212101 0 0.1154263)
(-5.969673 0 0.1154397)
(-5.909067 0 0.1539046)
(-5.848459 0 0.1154478)
(-5.606029 0 0.1154673)
(-5.545423 0 0.1539331)
(-5.484814 0 0.1154789)
(-3.07402 0 0.1349588)
(-3.043695 0 0.1533398)
(-3.013825 0 0.1242494)
(-3.013632 0 0.1432264)
(-2.695284 0 0.1314197)
(-2.710428 0 0.1412676)
(-2.331233 0 0.1271768)
(-2.346329 0 0.1368405)
(-1.967518 0 0.1236322)
(-1.982592 0 0.1332505)
(-1.603873 0 0.1202011)
(-1.618939 0 0.1298061)
(-1.240243 0 0.1167991)
(-1.255307 0 0.1263991)
(-0.891766 0 0.1135548)
(-0.8765254 0 0.1228722)
(-0.5281228 0 0.1101933)
(-0.5128748 0 0.1195188)
(-0.1486297 0 0.116631)
(-0.1640243 0 0.1071805)
(-9.939394 0 0.384616)
(-9.818181 0 0.461539)
(-9.696969 0 0.384616)
(-9.575757 0 0.3846161)
(-9.454544 0 0.4615392)
(-9.333332 0 0.3846163)
(-9.212119 0 0.3846164)
(-9.090907 0 0.4615395)
(-8.969695 0 0.3846167)
(-8.848482 0 0.3846169)
(-8.72727 0 0.4615401)
(-8.606057 0 0.3846174)
(-8.484845 0 0.3846177)
(-8.363632 0 0.461541)
(-8.24242 0 0.3846185)
(-8.121207 0 0.384619)
(-7.999995 0 0.4615424)
(-7.878782 0 0.3846202)
(-7.757569 0 0.3846211)
(-7.636357 0 0.4615446)
(-7.515144 0 0.384623)
(-7.393931 0 0.3846243)
(-7.272719 0 0.461548)
(-7.151506 0 0.3846272)
(-7.030293 0 0.3846292)
(-6.90908 0 0.4615531)
(-6.787867 0 0.3846334)
(-6.666654 0 0.3846366)
(-6.545441 0 0.4615605)
(-6.424228 0 0.3846427)
(-6.303014 0 0.3846473)
(-6.181803 0 0.4615711)
(-6.060588 0 0.384656)
(-5.939374 0 0.3846625)
(-5.818164 0 0.4615856)
(-5.696948 0 0.3846742)
(-5.575734 0 0.3846832)
(-5.454526 0 0.461604)
(-5.333309 0 0.3846977)
(-2.693888 0 0.3854875)
(-2.63311 0 0.4212354)
(-2.572298 0 0.3842169)
(-2.329643 0 0.3813247)
(-2.268929 0 0.4173836)
(-2.208364 0 0.3801579)
(-1.965816 0 0.3776308)
(-1.905105 0 0.413911)
(-1.844556 0 0.3765865)
(-1.602058 0 0.3742504)
(-1.541349 0 0.4107114)
(-1.480814 0 0.3732736)
(-1.238339 0 0.3710487)
(-1.17762 0 0.4076877)
(-1.117097 0 0.3701244)
(-0.8746107 0 0.3680013)
(-0.8138673 0 0.404834)
(-0.753349 0 0.3671404)
(-0.5107686 0 0.3651844)
(-0.4499383 0 0.4022453)
(-0.3893854 0 0.3644515)
(-0.1452468 0 0.3627963)
(-0.08235165 0 0.3991464)
(-0.01950235 0 0.3603272)
(-9.878788 0 0.6153851)
(-9.757575 0 0.6923081)
(-9.51515 0 0.6153852)
(-9.393938 0 0.6923082)
(-9.151513 0 0.6153854)
(-9.030301 0 0.6923084)
(-8.787876 0 0.6153858)
(-8.666663 0 0.6923089)
(-8.424238 0 0.6153865)
(-8.303026 0 0.6923095)
(-8.060601 0 0.6153875)
(-7.939388 0 0.6923105)
(-7.696963 0 0.6153892)
(-7.57575 0 0.692312)
(-7.333325 0 0.6153916)
(-7.212113 0 0.6923143)
(-6.969687 0 0.6153953)
(-6.848475 0 0.6923177)
(-6.606049 0 0.6154006)
(-6.484837 0 0.6923225)
(-6.242411 0 0.6154079)
(-6.1212 0 0.692329)
(-5.757563 0 0.6154196)
(-5.878776 0 0.6923327)
(-5.393928 0 0.6154308)
(-5.515142 0 0.692341)
(-2.664631 0 0.6358894)
(-2.543886 0 0.706631)
(-2.421692 0 0.6347499)
(-2.30036 0 0.6338252)
(-2.179837 0 0.7051354)
(-2.057784 0 0.6326481)
(-1.936512 0 0.6318048)
(-1.816009 0 0.703713)
(-1.693992 0 0.6307291)
(-1.572739 0 0.6299546)
(-1.452236 0 0.7024196)
(-1.330229 0 0.6289692)
(-1.208975 0 0.6282525)
(-1.08846 0 0.7012514)
(-0.9664503 0 0.6273577)
(-0.8451814 0 0.6267062)
(-0.7246379 0 0.7002241)
(-0.6026079 0 0.6259247)
(-0.4812485 0 0.6253653)
(-0.3605119 0 0.6993594)
(-0.2380098 0 0.6246729)
(-9.878788 0 0.846154)
(-9.757575 0 0.923077)
(-9.51515 0 0.8461541)
(-9.393938 0 0.9230771)
(-9.151513 0 0.8461542)
(-9.030301 0 0.9230771)
(-8.787876 0 0.8461544)
(-8.666663 0 0.9230773)
(-8.424238 0 0.8461547)
(-8.303026 0 0.9230774)
(-8.060601 0 0.8461552)
(-7.939388 0 0.9230777)
(-7.696963 0 0.8461559)
(-7.575751 0 0.9230782)
(-7.333325 0 0.846157)
(-7.212113 0 0.9230788)
(-6.969688 0 0.8461586)
(-6.848475 0 0.9230798)
(-6.484838 0 0.8461608)
(-6.606051 0 0.9230798)
(-6.121202 0 0.8461638)
(-6.242415 0 0.9230811)
(-5.757568 0 0.8461676)
(-5.87878 0 0.9230828)
(-5.393937 0 0.8461714)
(-5.515148 0 0.9230848)
(-2.484402 0 0.8519201)
(-2.60606 0 0.9260938)
(-2.242187 0 0.9258262)
(-2.120453 0 0.8513491)
(-1.878416 0 0.9255229)
(-1.756653 0 0.85077)
(-1.514661 0 0.9252471)
(-1.392884 0 0.8502511)
(-1.150895 0 0.925004)
(-1.029104 0 0.8497996)
(-0.7871096 0 0.9247955)
(-0.6652882 0 0.8494237)
(-0.3012614 0 0.8491184)
(-0.4232986 0 0.9246282)
(-2.035344 0 -0.5798641)
(-2.065554 0 -0.5603207)
(-2.337282 0 -0.3867001)
(-2.352483 0 -0.3771357)
(-2.010925 0 -0.3809778)
(-2.02609 0 -0.3900891)
(-2.041093 0 -0.3807019)
(-1.671498 0 -0.5832027)
(-1.701705 0 -0.5636783)
(-1.965653 0 -0.3802998)
(-1.98084 0 -0.3899843)
(-1.995878 0 -0.3808398)
(-1.654485 0 -0.3775601)
(-1.646974 0 -0.3825853)
(-1.307418 0 -0.5871926)
(-1.337594 0 -0.5677764)
(-1.624348 0 -0.3835489)
(-1.631847 0 -0.3783731)
(-1.282992 0 -0.3783794)
(-1.290191 0 -0.3841919)
(-0.943171 0 -0.5713254)
(-0.9736925 0 -0.5902337)
(-1.262096 0 -0.3845671)
(-1.270052 0 -0.3782736)
(-0.9186178 0 -0.3875943)
(-0.9262497 0 -0.3922112)
(-0.6095016 0 -0.5738789)
(-0.5792954 0 -0.5932887)
(-0.8958431 0 -0.3870785)
(-0.9034918 0 -0.3917212)
(-0.5548067 0 -0.3919683)
(-0.5700539 0 -0.4018539)
(-0.5851269 0 -0.3923492)
(-0.2146309 0 -0.5966757)
(-0.2449986 0 -0.5771614)
(-0.5093056 0 -0.3923166)
(-0.5245562 0 -0.4018649)
(-0.5396466 0 -0.3918895)
(-0.1981087 0 -0.4056527)
(-0.2132398 0 -0.3959378)
(0.1596681 0 -0.5384769)
(0.09818842 0 -0.5574281)
(0.0377022 0 -0.5187635)
(0.06672599 0 -0.5959039)
(-0.1523901 0 -0.4063029)
(-0.1675754 0 -0.3965682)
(0.1618683 0 -0.4046776)
(0.1313642 0 -0.4235525)
(-2.375228 0 -0.3488149)
(-2.390537 0 -0.3577362)
(-2.405726 0 -0.3479991)
(-2.018346 0 -0.3671895)
(-2.010812 0 -0.362658)
(-1.654352 0 -0.3639704)
(-1.646849 0 -0.3684905)
(-0.9184765 0 -0.3750584)
(-0.9261012 0 -0.3792738)
(-0.5546215 0 -0.3724206)
(-0.562253 0 -0.377429)
(-0.1902627 0 -0.3674246)
(-0.2055146 0 -0.3767898)
(-0.2206304 0 -0.3670337)
(0.1332382 0 -0.3378158)
(0.162847 0 -0.3567385)
(0.132341 0 -0.3761346)
(0.1340764 0 -0.1551301)
(0.1642538 0 -0.174995)
(0.1339462 0 -0.1939564)
(-3.059079 0 0.09709153)
(-3.074171 0 0.1066638)
(-2.763794 0 0.1033379)
(-2.748559 0 0.1128393)
(-2.733352 0 0.1029866)
(-2.718148 0 0.1028205)
(-2.702936 0 0.1122597)
(-2.68776 0 0.1024302)
(-2.399621 0 0.09937075)
(-2.384405 0 0.1087128)
(-2.369309 0 0.09907079)
(-2.354156 0 0.09892668)
(-2.338937 0 0.1082628)
(-2.323845 0 0.09863042)
(-2.035943 0 0.095894)
(-2.020711 0 0.1052074)
(-2.005639 0 0.09560765)
(-1.990488 0 0.09546594)
(-1.975255 0 0.1047781)
(-1.960184 0 0.09518081)
(-1.67231 0 0.0924854)
(-1.657073 0 0.1017906)
(-1.642007 0 0.09220152)
(-1.626856 0 0.09206022)
(-1.611619 0 0.1013653)
(-1.596554 0 0.09177732)
(-1.308685 0 0.08909146)
(-1.293446 0 0.09839367)
(-1.278383 0 0.08880841)
(-1.263232 0 0.08866726)
(-1.247993 0 0.0979698)
(-1.23293 0 0.08838523)
(-0.9450613 0 0.08570435)
(-0.9298217 0 0.09500653)
(-0.9147592 0 0.08542195)
(-0.8996083 0 0.08528092)
(-0.8843685 0 0.09458377)
(-0.8693062 0 0.08499956)
(-0.5814341 0 0.0823254)
(-0.5661905 0 0.09163192)
(-0.5511306 0 0.08204467)
(-0.5359794 0 0.08190394)
(-0.5207345 0 0.09121227)
(-0.5056754 0 0.0816246)
(-0.2176969 0 0.07902929)
(-0.2023663 0 0.08840434)
(-0.1873221 0 0.07879569)
(0.1346535 0 -0.09733406)
(0.164674 0 -0.1169389)
(0.1342255 0 -0.1358776)
(-0.1721348 0 0.0786725)
(-0.1567312 0 0.08809724)
(-0.1416706 0 0.07848739)
(0.1370512 0 0.0816851)
(0.1669655 0 0.06189408)
(0.1371818 0 0.04310076)
(-2.376709 0 0.1276447)
(-2.391808 0 0.1373166)
(-2.693925 0 0.3306524)
(-2.663641 0 0.31167)
(-2.420798 0 0.3271531)
(-2.390591 0 0.3081704)
(-2.028052 0 0.1336867)
(-2.012977 0 0.1240671)
(-2.299626 0 0.307082)
(-2.329833 0 0.3260828)
(-2.056958 0 0.3231216)
(-2.026753 0 0.3041557)
(-1.664394 0 0.130234)
(-1.649328 0 0.1206289)
(-1.935805 0 0.3031985)
(-1.966009 0 0.3221893)
(-1.69319 0 0.3195056)
(-1.662996 0 0.3005327)
(-1.30076 0 0.1268239)
(-1.285696 0 0.1172241)
(-1.572066 0 0.2996331)
(-1.602259 0 0.3186342)
(-1.329479 0 0.3160845)
(-1.299293 0 0.2970895)
(-0.9219794 0 0.1232941)
(-0.9372198 0 0.1139765)
(-1.208371 0 0.2962243)
(-1.238556 0 0.3152488)
(-0.96578 0 0.312801)
(-0.935598 0 0.293776)
(-0.5583349 0 0.1199339)
(-0.5735815 0 0.1106095)
(-0.8446705 0 0.2929439)
(-0.8748498 0 0.3120001)
(-0.60201 0 0.3096912)
(-0.5718235 0 0.290637)
(-0.209683 0 0.1074541)
(-0.1943424 0 0.116863)
(-0.4808448 0 0.2898782)
(-0.5110324 0 0.3089616)
(-0.2379636 0 0.2881649)
(-0.2073443 0 0.3068598)
(0.136829 0 0.1385268)
(0.1668379 0 0.1192333)
(0.136926 0 0.1005821)
(-0.1460144 0 0.2876194)
(-0.1148219 0 0.3062407)
(0.1356819 0 0.3002269)
(0.1660458 0 0.2808678)
(-2.399529 0 -0.5769163)
(-2.429871 0 -0.5572074)
(-2.703944 0 -0.3801492)
(-2.673444 0 -0.3997313)
(-2.383057 0 -0.3860395)
(-2.398265 0 -0.3763533)
(-2.74971 0 -0.321989)
(-2.780348 0 -0.3405563)
(-2.810855 0 -0.3208078)
(-3.035482 0 -0.1680489)
(-3.020241 0 -0.1295568)
(-3.047854 0 -0.1457354)
(-3.07541 0 -0.1328373)
(-2.566637 0 -0.3541366)
(-2.58188 0 -0.3442976)
(-2.695969 0 -0.2559706)
(-2.711316 0 -0.265245)
(-2.726549 0 -0.2553037)
(-2.565693 0 -0.2607055)
(-2.193002 0 -0.3585006)
(-2.200642 0 -0.363346)
(-1.836675 0 -0.3689726)
(-1.825149 0 -0.3620239)
(-1.464866 0 -0.3766103)
(-1.472426 0 -0.3723055)
(-1.101082 0 -0.3793928)
(-1.10861 0 -0.3749085)
(-0.739103 0 -0.3751135)
(-0.7472693 0 -0.3690211)
(-0.3723456 0 -0.3749709)
(-0.3799643 0 -0.3799701)
(0.001783871 0 -0.3670672)
(-0.0160806 0 -0.3774204)
(-0.03365316 0 -0.3687381)
(-2.740894 0 0.1320719)
(-2.756053 0 0.1419172)
(-2.754889 0 0.3311566)
(-2.785569 0 0.3127367)
(-2.019137 0 -0.4559046)
(-2.018966 0 -0.4369484)
(-2.04956 0 -0.4651205)
(-2.079728 0 -0.4458353)
(-2.147656 0 -0.3777935)
(-2.162909 0 -0.3872985)
(-2.177992 0 -0.3775461)
(-2.110184 0 -0.4453792)
(-2.140734 0 -0.4640627)
(-2.170961 0 -0.4446706)
(-1.973893 0 -0.4657082)
(-1.989081 0 -0.4750943)
(-1.829132 0 -0.3825555)
(-1.844399 0 -0.3915796)
(-1.859561 0 -0.3821178)
(-1.852627 0 -0.4762605)
(-1.837351 0 -0.4668597)
(-1.655443 0 -0.4783424)
(-1.670522 0 -0.4685826)
(-1.783668 0 -0.3872124)
(-1.783618 0 -0.3780463)
(-1.798859 0 -0.3918972)
(-1.813954 0 -0.3826957)
(-1.79185 0 -0.4671912)
(-1.807079 0 -0.4765998)
(-1.609957 0 -0.479072)
(-1.625035 0 -0.4693004)
(-1.464974 0 -0.3893612)
(-1.472532 0 -0.3848217)
(-1.473285 0 -0.4811056)
(-1.488379 0 -0.47152)
(-1.306491 0 -0.4730839)
(-1.291369 0 -0.4827914)
(-1.449789 0 -0.3894102)
(-1.442166 0 -0.3850171)
(-1.427722 0 -0.472072)
(-1.442959 0 -0.4813932)
(-1.245665 0 -0.4834918)
(-1.260822 0 -0.4737429)
(-1.101185 0 -0.3928768)
(-1.108701 0 -0.3880722)
(-1.109458 0 -0.4853195)
(-1.12447 0 -0.4758239)
(-0.9270937 0 -0.4762548)
(-0.9423522 0 -0.485763)
(-1.0784 0 -0.3932463)
(-1.085975 0 -0.3885487)
(-1.063864 0 -0.4762527)
(-1.079155 0 -0.4855379)
(-0.8815247 0 -0.4762569)
(-0.896817 0 -0.48577)
(-0.73692 0 -0.3912107)
(-0.7444684 0 -0.3858031)
(-0.745279 0 -0.486863)
(-0.7603221 0 -0.4771131)
(-0.5631742 0 -0.4787846)
(-0.5784297 0 -0.488236)
(-0.7139735 0 -0.3928518)
(-0.7216051 0 -0.3875537)
(-0.6997466 0 -0.4873712)
(-0.7148557 0 -0.477695)
(-0.4719067 0 -0.4603227)
(-0.5023697 0 -0.4696164)
(-0.5325706 0 -0.4502135)
(-0.517715 0 -0.4886628)
(-0.3725345 0 -0.3942149)
(-0.3878019 0 -0.4038511)
(-0.4028684 0 -0.3945033)
(-0.3807592 0 -0.461106)
(-0.4113116 0 -0.4799859)
(-0.4415195 0 -0.4606434)
(-0.1985042 0 -0.462895)
(-0.2290525 0 -0.481672)
(-0.2593404 0 -0.4622239)
(-0.3270723 0 -0.3943186)
(-0.3423154 0 -0.4038094)
(-0.3573916 0 -0.3940601)
(-0.2896932 0 -0.461887)
(-0.3202112 0 -0.4807251)
(-0.3504022 0 -0.461309)
(-2.536 0 -0.345264)
(-2.520709 0 -0.3550848)
(-2.726472 0 -0.2360324)
(-2.718804 0 -0.2409548)
(-2.170226 0 -0.3582298)
(-2.177858 0 -0.3631373)
(-1.80204 0 -0.360069)
(-1.809987 0 -0.3666195)
(-1.449685 0 -0.3767568)
(-1.44184 0 -0.3730415)
(-1.078288 0 -0.3799098)
(-1.08588 0 -0.3755585)
(-0.7237534 0 -0.3721525)
(-0.7138039 0 -0.3791851)
(-0.3496524 0 -0.374632)
(-0.3572567 0 -0.3795598)
(0.134001 0 -0.2136447)
(0.1643062 0 -0.2343493)
(0.1342822 0 -0.2544562)
(0.02980463 0 -0.1538908)
(0.02312199 0 -0.1490172)
(0.02918988 0 -0.2575891)
(0.0222424 0 -0.2518467)
(-2.897635 0 -0.1120304)
(-2.905845 0 -0.1174204)
(-2.902332 0 0.09849493)
(-2.886729 0 0.1096336)
(-2.871327 0 0.1013391)
(-2.581541 0 0.1012369)
(-2.566338 0 0.1106229)
(-2.551208 0 0.1009104)
(-2.536048 0 0.1007594)
(-2.520841 0 0.1101275)
(-2.505722 0 0.1004342)
(-2.217772 0 0.09762403)
(-2.202545 0 0.1069518)
(-2.187465 0 0.09733894)
(-2.172313 0 0.09719654)
(-2.157085 0 0.1065162)
(-2.142007 0 0.09690267)
(-1.854124 0 0.09419495)
(-1.838889 0 0.103508)
(-1.823821 0 0.09391555)
(-1.80867 0 0.09377412)
(-1.793435 0 0.1030814)
(-1.778368 0 0.09348517)
(-1.490497 0 0.09079567)
(-1.475259 0 0.1001037)
(-1.460194 0 0.09051754)
(-1.445044 0 0.09037633)
(-1.429806 0 0.09967925)
(-1.414741 0 0.09008866)
(-1.126873 0 0.08740545)
(-1.111634 0 0.09671209)
(-1.096571 0 0.08712798)
(-1.08142 0 0.08698689)
(-1.066181 0 0.09628877)
(-1.051118 0 0.08669993)
(-0.7632488 0 0.0840216)
(-0.748008 0 0.09332982)
(-0.7329464 0 0.08374498)
(-0.7177954 0 0.08360405)
(-0.7025542 0 0.092908)
(-0.6874929 0 0.08331802)
(-0.3996088 0 0.08065532)
(-0.3843544 0 0.08997663)
(-0.3692994 0 0.08038475)
(-0.3541467 0 0.08024515)
(-0.3388855 0 0.08956749)
(-0.3238332 0 0.07996814)
(0.02993628 0 -0.1394672)
(0.02325459 0 -0.1345944)
(0.1358324 0 -0.03877092)
(0.1655725 0 -0.05862996)
(0.134961 0 -0.07808682)
(0.02418178 0 -0.03850811)
(0.03104907 0 -0.03362337)
(-0.02987186 0 0.07811485)
(-0.01159566 0 0.0862947)
(0.006648226 0 0.0755468)
(-2.283984 0 -0.3495833)
(-2.299149 0 -0.3589947)
(-2.314176 0 -0.3498535)
(-2.352168 0 -0.3222701)
(-2.359826 0 -0.3174521)
(-2.291352 0 -0.3220772)
(-2.281938 0 -0.3157499)
(-1.920069 0 -0.3649327)
(-1.927553 0 -0.3596763)
(-1.563533 0 -0.3689752)
(-1.555939 0 -0.3732644)
(-1.191105 0 -0.3752936)
(-1.198743 0 -0.3794367)
(-0.8271946 0 -0.3712778)
(-0.8348297 0 -0.3759942)
(-0.4635235 0 -0.3801831)
(-0.47112 0 -0.375026)
(-0.09858731 0 -0.3688276)
(-0.1139312 0 -0.3783014)
(-0.1292475 0 -0.3688663)
(-0.1765893 0 -0.3342411)
(-0.1670991 0 -0.3407597)
(-0.09852702 0 -0.3353404)
(-0.1061679 0 -0.3405169)
(-3.120728 0 -0.1035968)
(-3.15093 0 -0.08407678)
(-3.12053 0 -0.06487522)
(-3.119577 0 0.06953425)
(-3.149832 0 0.08853112)
(-3.119504 0 0.1071664)
(-2.930157 0 -0.1186668)
(-2.922583 0 -0.09984679)
(-2.938583 0 -0.10985)
(-2.954674 0 -0.1054756)
(-3.059781 0 -0.006764634)
(-3.074929 0 -0.01650287)
(-2.558675 0 0.1296596)
(-2.573798 0 0.1394044)
(-2.710061 0 0.1987779)
(-2.679561 0 0.217445)
(-2.649302 0 0.1978603)
(-2.618948 0 0.1974232)
(-2.588459 0 0.2161463)
(-2.558249 0 0.1966056)
(-2.209909 0 0.1354782)
(-2.194825 0 0.1258429)
(-2.345927 0 0.1940021)
(-2.315463 0 0.2127459)
(-2.285281 0 0.1933349)
(-2.254961 0 0.193023)
(-2.224497 0 0.211775)
(-2.194321 0 0.1924009)
(-1.846218 0 0.13197)
(-1.831148 0 0.1223613)
(-1.982125 0 0.1902148)
(-1.95166 0 0.2089366)
(-1.921504 0 0.1896206)
(-1.891196 0 0.1893346)
(-1.860729 0 0.2080633)
(-1.830578 0 0.1887663)
(-1.467425 0 0.1284054)
(-1.482662 0 0.1190804)
(-1.618436 0 0.1866885)
(-1.587963 0 0.2053915)
(-1.557825 0 0.1861163)
(-1.527521 0 0.1858367)
(-1.497046 0 0.2045494)
(-1.466911 0 0.1852857)
(-1.103794 0 0.1250073)
(-1.119034 0 0.115684)
(-1.254783 0 0.1832477)
(-1.224304 0 0.2019439)
(-1.194175 0 0.1826868)
(-1.163872 0 0.1824104)
(-1.133391 0 0.2011194)
(-1.103263 0 0.1818699)
(-0.7401615 0 0.1216299)
(-0.7554037 0 0.112304)
(-0.8911357 0 0.179861)
(-0.8606468 0 0.1985644)
(-0.8305246 0 0.1793111)
(-0.8002206 0 0.1790378)
(-0.7697269 0 0.197759)
(-0.7396067 0 0.1785099)
(-0.391731 0 0.1089709)
(-0.3764689 0 0.1183166)
(-0.5274425 0 0.1765546)
(-0.4969185 0 0.1952991)
(-0.4668046 0 0.1760366)
(-0.4364874 0 0.1757767)
(-0.4059403 0 0.19456)
(-0.3758247 0 0.1753014)
(-0.002686995 0 0.1042021)
(-0.02050211 0 0.1149539)
(-0.1630799 0 0.1738275)
(-0.1317686 0 0.1927069)
(-0.1013255 0 0.1735618)
(-0.06959689 0 0.1733817)
(-0.03611315 0 0.1910365)
(-0.003067352 0 0.1706853)
(-2.292238 0 -0.443765)
(-2.32275 0 -0.4624532)
(-2.352933 0 -0.4431555)
(-2.193166 0 -0.3776049)
(-2.208424 0 -0.3871526)
(-2.223534 0 -0.3776282)
(-2.201292 0 -0.4444106)
(-2.231781 0 -0.4632208)
(-2.261953 0 -0.4439552)
(-1.647231 0 -0.4114571)
(-1.662477 0 -0.4207827)
(-1.677528 0 -0.410889)
(-1.715241 0 -0.3768348)
(-1.722894 0 -0.3816817)
(-1.692725 0 -0.4106983)
(-1.70803 0 -0.420178)
(-1.723143 0 -0.4104493)
(-1.601868 0 -0.4128405)
(-1.617075 0 -0.4218738)
(-1.632133 0 -0.4119186)
(-1.563629 0 -0.3819108)
(-1.556046 0 -0.3866784)
(-1.55626 0 -0.4143125)
(-1.571541 0 -0.4232071)
(-1.586687 0 -0.4134373)
(-1.290888 0 -0.4301393)
(-1.306005 0 -0.4203634)
(-1.283119 0 -0.4103835)
(-1.298317 0 -0.4105125)
(-1.351562 0 -0.3858875)
(-1.359045 0 -0.3789351)
(-1.328749 0 -0.4156757)
(-1.34399 0 -0.4252921)
(-1.359054 0 -0.4159417)
(-1.260436 0 -0.4306721)
(-1.268016 0 -0.4256228)
(-1.191343 0 -0.3878322)
(-1.198983 0 -0.3921443)
(-1.191731 0 -0.4192854)
(-1.207035 0 -0.4279685)
(-1.222092 0 -0.41337)
(-1.222182 0 -0.4227326)
(-0.9189602 0 -0.4196117)
(-0.9342169 0 -0.4291304)
(-0.9492853 0 -0.4199931)
(-0.9945479 0 -0.3931076)
(-0.9868938 0 -0.3886073)
(-0.9644517 0 -0.4202388)
(-0.9797368 0 -0.429615)
(-0.9948306 0 -0.4205262)
(-0.873366 0 -0.4190015)
(-0.8886705 0 -0.4286409)
(-0.9037827 0 -0.4193435)
(-0.827363 0 -0.3847227)
(-0.8349996 0 -0.3897504)
(-0.8277348 0 -0.4185061)
(-0.8430392 0 -0.4282581)
(-0.8581321 0 -0.4187239)
(-0.1063681 0 -0.4638827)
(-0.13715 0 -0.4826263)
(-0.1680398 0 -0.4632649)
(-0.02551511 0 -0.4062022)
(-0.007950909 0 -0.3958086)
(-0.009116752 0 -0.4624502)
(-0.04201872 0 -0.4822682)
(-0.07485465 0 -0.4640722)
(-2.420977 0 -0.347563)
(-2.436378 0 -0.3566916)
(-2.451655 0 -0.3469125)
(-2.375127 0 -0.3212741)
(-2.38275 0 -0.3163784)
(-2.451422 0 -0.3135306)
(-2.443727 0 -0.3184257)
(-2.07899 0 -0.3656863)
(-2.086591 0 -0.3606611)
(-1.715151 0 -0.36737)
(-1.72265 0 -0.362451)
(-1.351749 0 -0.3720484)
(-1.358954 0 -0.3718983)
(-0.9868027 0 -0.3800861)
(-0.9943752 0 -0.3757905)
(-0.6227751 0 -0.3745325)
(-0.6303839 0 -0.3794611)
(-0.2357561 0 -0.3672783)
(-0.2509544 0 -0.3721347)
(-0.2660045 0 -0.3628694)
(-0.2586417 0 -0.3814179)
(-0.191958 0 -0.3374312)
(-0.2000114 0 -0.3320749)
(-0.2579672 0 -0.3360915)
(-0.2655714 0 -0.3407775)
(0.04184462 0 -0.3664231)
(0.02592089 0 -0.3758673)
(0.1344232 0 -0.2764209)
(0.1641425 0 -0.2971615)
(0.1337366 0 -0.3183666)
(0.02933963 0 -0.2750473)
(0.02199583 0 -0.2686046)
(-3.074466 0 0.01289171)
(-3.058824 0 0.02290659)
(-2.947258 0 0.09423751)
(-2.932266 0 0.1052022)
(-2.917727 0 0.09690393)
(-2.740952 0 0.07427744)
(-2.733348 0 0.06946699)
(-2.809595 0 0.103477)
(-2.79431 0 0.1131786)
(-2.779036 0 0.1034342)
(-2.809471 0 0.06951323)
(-2.801872 0 0.07441603)
(-2.718166 0 0.07407824)
(-2.710575 0 0.06926646)
(-2.672577 0 0.1022622)
(-2.657374 0 0.1116781)
(-2.642218 0 0.1018955)
(-2.649889 0 0.07340748)
(-2.642327 0 0.06861611)
(-2.369559 0 0.06603207)
(-2.377095 0 0.07079891)
(-2.44509 0 0.09982346)
(-2.429877 0 0.1091718)
(-2.414774 0 0.09951624)
(-2.445279 0 0.07144213)
(-2.43774 0 0.06667143)
(-2.354367 0 0.07058565)
(-2.346831 0 0.06581884)
(-2.308693 0 0.09848743)
(-2.293471 0 0.10782)
(-2.278384 0 0.09819619)
(-2.286185 0 0.06994762)
(-2.27865 0 0.0651828)
(-2.005931 0 0.06263685)
(-2.013464 0 0.06739887)
(-2.081399 0 0.09632553)
(-2.066168 0 0.10564)
(-2.051094 0 0.09603633)
(-2.081644 0 0.06803627)
(-2.07411 0 0.06327327)
(-1.990737 0 0.0671869)
(-1.983205 0 0.06242502)
(-1.945033 0 0.0950397)
(-1.929799 0 0.1043519)
(-1.91473 0 0.09475709)
(-1.915026 0 0.06179062)
(-1.922558 0 0.06655225)
(-1.642309 0 0.05924862)
(-1.649841 0 0.06400951)
(-1.717763 0 0.09291316)
(-1.702527 0 0.1022184)
(-1.687461 0 0.09262722)
(-1.71802 0 0.06464602)
(-1.710488 0 0.05988467)
(-1.627115 0 0.06379775)
(-1.619583 0 0.05903709)
(-1.581403 0 0.09163655)
(-1.566166 0 0.1009424)
(-1.551101 0 0.09135565)
(-1.551404 0 0.05840294)
(-1.558936 0 0.06316371)
(-1.278688 0 0.05586188)
(-1.28622 0 0.06062237)
(-1.354138 0 0.08951802)
(-1.338899 0 0.0988199)
(-1.323836 0 0.08923312)
(-1.354399 0 0.06125861)
(-1.346867 0 0.05649781)
(-1.255918 0 0.06034017)
(-1.263537 0 0.05572079)
(-1.217779 0 0.0882446)
(-1.20254 0 0.09754828)
(-1.187477 0 0.08796443)
(-1.195358 0 0.05508686)
(-1.187739 0 0.05970645)
(-0.9226428 0 0.05254662)
(-0.9150236 0 0.05716574)
(-0.9905142 0 0.08613015)
(-0.9752748 0 0.09543165)
(-0.9602122 0 0.0858459)
(-0.990778 0 0.05787236)
(-0.9832463 0 0.05311169)
(-0.8922973 0 0.05695418)
(-0.8999165 0 0.05233479)
(-0.8541552 0 0.08485904)
(-0.8389151 0 0.09416342)
(-0.823853 0 0.08457958)
(-0.8317376 0 0.05170098)
(-0.8241183 0 0.05632065)
(-0.5590215 0 0.04916148)
(-0.5514018 0 0.05378113)
(-0.6268881 0 0.08274971)
(-0.6116456 0 0.09205459)
(-0.5965852 0 0.0824667)
(-0.6195811 0 0.05441668)
(-0.6272006 0 0.04979697)
(-0.5286753 0 0.05356972)
(-0.536295 0 0.04894982)
(-0.490524 0 0.08148449)
(-0.475277 0 0.09079609)
(-0.4602188 0 0.08120796)
(-0.4681157 0 0.04831637)
(-0.4604956 0 0.05293692)
(-0.1953747 0 0.0457902)
(-0.1877349 0 0.05042111)
(-0.2632001 0 0.07942078)
(-0.2479065 0 0.08876765)
(-0.2328616 0 0.07916305)
(-0.2635713 0 0.04641776)
(-0.2559463 0 0.05104153)
(-0.172629 0 0.04558571)
(-0.1649781 0 0.05022091)
(-0.1264165 0 0.07839615)
(-0.1107828 0 0.08790662)
(-0.09562276 0 0.07832446)
(-0.1041697 0 0.04502041)
(-0.09637899 0 0.04971604)
(0.1371099 0 0.02301295)
(0.1667844 0 0.001956815)
(0.13653 0 -0.01832959)
(0.02403107 0 0.07419025)
(0.03926317 0 0.08315919)
(0.05504227 0 0.07325222)
(0.02434505 0 -0.023583)
(0.03136984 0 -0.01832963)
(-2.513169 0 0.1291241)
(-2.528287 0 0.1388568)
(-2.436906 0 0.1950562)
(-2.406438 0 0.2137926)
(-2.376252 0 0.1943355)
(-2.527908 0 0.1962133)
(-2.49743 0 0.2149353)
(-2.467238 0 0.1954197)
(-2.149359 0 0.1253926)
(-2.164442 0 0.1350329)
(-2.07306 0 0.1911313)
(-2.042597 0 0.2098513)
(-2.012434 0 0.1905109)
(-2.164005 0 0.1920925)
(-2.133542 0 0.2108131)
(-2.103372 0 0.191439)
(-1.785692 0 0.1219262)