
10549
(
3(5486 5398 5425)
3(5425 5488 5486)
3(5425 5398 5292)
3(5292 5320 5425)
3(5320 5292 5186)
3(5186 5214 5320)
3(5214 5186 5080)
3(5080 5108 5214)
3(5108 5080 4987)
3(4987 5002 5108)
3(5002 4987 4890)
3(4890 4896 5002)
3(4896 4890 4787)
3(4787 4790 4896)
3(4790 4787 4682)
3(4682 4690 4790)
3(4682 4576 4596)
3(4596 4690 4682)
3(4576 4470 4490)
3(4490 4596 4576)
3(4470 4364 4384)
3(4384 4490 4470)
3(4364 4258 4278)
3(4278 4384 4364)
3(4258 4168 4177)
3(4177 4278 4258)
3(4168 4064 4090)
3(4090 4177 4168)
3(5396 5398 5486)
3(5486 5484 5396)
3(5290 5292 5398)
3(5398 5396 5290)
3(5184 5186 5292)
3(5292 5290 5184)
3(5186 5184 5078)
3(5078 5080 5186)
3(5080 5078 4972)
3(4972 4987 5080)
3(4987 4972 4866)
3(4866 4890 4987)
3(4866 4760 4787)
3(4787 4890 4866)
3(4760 4654 4682)
3(4682 4787 4760)
3(4654 4548 4576)
3(4576 4682 4654)
3(4548 4446 4470)
3(4470 4576 4548)
3(4446 4354 4364)
3(4364 4470 4446)
3(4354 4253 4258)
3(4258 4364 4354)
3(4253 4149 4168)
3(4168 4258 4253)
3(4149 4044 4064)
3(4064 4168 4149)
3(5376 5396 5484)
3(5484 5482 5376)
3(5274 5290 5396)
3(5396 5376 5274)
3(5171 5184 5290)
3(5290 5274 5171)
3(5070 5078 5184)
3(5184 5171 5070)
3(4968 4972 5078)
3(5078 5070 4968)
3(4972 4968 4864)
3(4864 4866 4972)
3(4864 4758 4760)
3(4760 4866 4864)
3(4758 4652 4654)
3(4654 4760 4758)
3(4652 4546 4548)
3(4548 4654 4652)
3(4546 4440 4446)
3(4446 4548 4546)
3(4440 4334 4354)
3(4354 4446 4440)
3(4334 4228 4253)
3(4253 4354 4334)
3(4228 4122 4149)
3(4149 4253 4228)
3(4122 4016 4044)
3(4044 4149 4122)
3(5374 5376 5482)
3(5482 5480 5374)
3(5268 5274 5376)
3(5376 5374 5268)
3(5162 5171 5274)
3(5274 5268 5162)
3(5056 5070 5171)
3(5171 5162 5056)
3(4950 4968 5070)
3(5070 5056 4950)
3(4844 4864 4968)
3(4968 4950 4844)
3(4738 4758 4864)
3(4864 4844 4738)
3(4738 4632 4652)
3(4652 4758 4738)
3(4632 4526 4546)
3(4546 4652 4632)
3(4526 4420 4440)
3(4440 4546 4526)
3(4420 4320 4334)
3(4334 4440 4420)
3(4320 4221 4228)
3(4228 4334 4320)
3(4221 4119 4122)
3(4122 4228 4221)
3(4119 4014 4016)
3(4016 4122 4119)
3(5369 5374 5480)
3(5480 5476 5369)
3(5263 5268 5374)
3(5374 5369 5263)
3(5157 5162 5268)
3(5268 5263 5157)
3(5052 5056 5162)
3(5162 5157 5052)
3(4946 4950 5056)
3(5056 5052 4946)
3(4840 4844 4950)
3(4950 4946 4840)
3(4734 4738 4844)
3(4844 4840 4734)
3(4628 4632 4738)
3(4738 4734 4628)
3(4628 4522 4526)
3(4526 4632 4628)
3(4522 4416 4420)
3(4420 4526 4522)
3(4416 4310 4320)
3(4320 4420 4416)
3(4310 4204 4221)
3(4221 4320 4310)
3(4204 4098 4119)
3(4119 4221 4204)
3(4098 3992 4014)
3(4014 4119 4098)
3(5423 5364 5369)
3(5369 5476 5423)
3(5476 5472 5423)
3(5317 5258 5263)
3(5263 5369 5317)
3(5369 5364 5317)
3(5212 5153 5157)
3(5157 5263 5212)
3(5263 5258 5212)
3(5106 5047 5052)
3(5052 5157 5106)
3(5157 5153 5106)
3(5000 4941 4946)
3(4946 5052 5000)
3(5052 5047 5000)
3(4894 4835 4840)
3(4840 4946 4894)
3(4946 4941 4894)
3(4786 4729 4734)
3(4734 4840 4786)
3(4840 4835 4786)
3(4680 4623 4628)
3(4628 4734 4680)
3(4734 4729 4680)
3(4574 4517 4522)
3(4522 4628 4574)
3(4628 4623 4574)
3(4468 4411 4416)
3(4416 4522 4468)
3(4522 4517 4468)
3(4362 4306 4310)
3(4310 4416 4362)
3(4416 4411 4362)
3(4256 4200 4204)
3(4256 4204 4310)
3(4310 4306 4256)
3(4148 4094 4098)
3(4148 4098 4204)
3(4204 4200 4148)
3(5421 5423 5472)
3(5472 5468 5421)
3(5364 5361 5315)
3(5315 5317 5364)
3(5258 5255 5209)
3(5209 5212 5258)
3(5153 5149 5103)
3(5103 5106 5153)
3(5047 5043 4997)
3(4997 5000 5047)
3(4941 4937 4889)
3(4889 4894 4941)
3(4835 4831 4783)
3(4783 4786 4835)
3(4729 4725 4677)
3(4677 4680 4729)
3(4623 4620 4572)
3(4572 4574 4623)
3(4468 4517 4514)
3(4514 4466 4468)
3(4362 4411 4408)
3(4408 4360 4362)
3(4256 4306 4302)
3(4302 4252 4256)
3(4148 4200 4196)
3(4196 4146 4148)
3(2963 2979 3171)
3(3057 2954 2963)
3(2963 3171 3057)
3(3171 3149 3057)
3(2661 2668 2774)
3(2774 2757 2661)
3(2263 2283 2383)
3(2383 2368 2263)
3(1887 1915 2003)
3(2003 1983 1887)
3(1640 1610 1513)
3(1513 1548 1640)
3(1249 1160 1207)
3(1207 1283 1249)
3(972 925 848)
3(848 904 972)
3(677 746 767)
3(767 702 677)
3(5466 5464 5435)
3(5435 5439 5466)
3(5353 5349 5329)
3(5329 5333 5353)
3(5247 5243 5223)
3(5223 5227 5247)
3(5141 5137 5117)
3(5117 5121 5141)
3(5036 5031 5011)
3(5011 5016 5036)
3(4930 4925 4905)
3(4905 4910 4930)
3(4825 4819 4800)
3(4800 4805 4825)
3(4720 4715 4694)
3(4694 4698 4720)
3(4592 4615 4610)
3(4610 4588 4592)
3(4486 4509 4504)
3(4504 4482 4486)
3(4380 4403 4398)
3(4398 4376 4380)
3(4274 4297 4293)
3(4293 4271 4274)
3(4166 4191 4187)
3(4187 4163 4166)
3(3396 3399 3439)
3(3439 3436 3396)
3(3028 3031 3129)
3(3073 3027 3028)
3(3028 3129 3073)
3(3129 3122 3073)
3(2689 2666 2667)
3(2667 2722 2689)
3(2722 2719 2689)
3(2324 2299 2301)
3(2301 2325 2324)
3(1901 1911 1935)
3(1935 1928 1901)
3(1139 1159 1157)
3(1157 1135 1139)
3(789 765 776)
3(776 798 789)
3(465 445 484)
3(484 504 465)
3(504 472 465)
3(5453 5431 5432)
3(5432 5454 5453)
3(5343 5325 5326)
3(5326 5344 5343)
3(5237 5219 5220)
3(5220 5238 5237)
3(5131 5113 5114)
3(5114 5132 5131)
3(5025 5007 5008)
3(5008 5026 5025)
3(4919 4901 4902)
3(4902 4920 4919)
3(4813 4795 4796)
3(4796 4814 4813)
3(4707 4687 4688)
3(4688 4708 4707)
3(4601 4581 4582)
3(4582 4602 4601)
3(4476 4496 4495)
3(4495 4475 4476)
3(4370 4390 4389)
3(4389 4369 4370)
3(4263 4284 4283)
3(4283 4262 4263)
3(4156 4176 4175)
3(4175 4155 4156)
3(3408 3410 3419)
3(3419 3418 3408)
3(5430 5450 5456)
3(5430 5456 5405)
3(5405 5402 5430)
3(5324 5342 5345)
3(5324 5345 5299)
3(5299 5296 5324)
3(5218 5236 5239)
3(5218 5239 5193)
3(5193 5190 5218)
3(5112 5130 5133)
3(5112 5133 5086)
3(5086 5083 5112)
3(5006 5024 5027)
3(5006 5027 4979)
3(4979 4976 5006)
3(4900 4918 4921)
3(4900 4921 4873)
3(4873 4870 4900)
3(4794 4812 4815)
3(4794 4815 4767)
3(4767 4764 4794)
3(4686 4706 4709)
3(4686 4709 4661)
3(4661 4658 4686)
3(4580 4600 4603)
3(4580 4603 4555)
3(4555 4552 4580)
3(4474 4494 4497)
3(4474 4497 4448)
3(4448 4444 4474)
3(4368 4388 4391)
3(4368 4391 4341)
3(4341 4338 4368)
3(4261 4282 4285)
3(4261 4285 4235)
3(4235 4232 4261)
3(4154 4174 4178)
3(4154 4178 4129)
3(4129 4126 4154)
3(3409 3417 3420)
3(3420 3379 3409)
3(3378 3377 3409)
3(3409 3379 3378)
3(3054 3052 3091)
3(3091 3093 3054)
3(2643 2640 2684)
3(2684 2686 2643)
3(2235 2233 2278)
3(2278 2279 2235)
3(1838 1836 1883)
3(1883 1884 1838)
3(1439 1436 1482)
3(1482 1484 1439)
3(1025 1073 1079)
3(1079 1030 1025)
3(609 662 668)
3(668 616 609)
3(231 192 173)
3(173 215 231)
3(5408 5462 5470)
3(5408 5470 5363)
3(5363 5348 5408)
3(5302 5348 5363)
3(5302 5363 5257)
3(5257 5242 5302)
3(5196 5242 5257)
3(5196 5257 5151)
3(5151 5136 5196)
3(5089 5136 5151)
3(5089 5151 5045)
3(5045 5030 5089)
3(4982 5030 5045)
3(4982 5045 4939)
3(4939 4924 4982)
3(4876 4924 4939)
3(4876 4939 4833)
3(4833 4818 4876)
3(4770 4818 4833)
3(4770 4833 4727)
3(4727 4712 4770)
3(4664 4712 4727)
3(4664 4727 4621)
3(4621 4606 4664)
3(4558 4606 4621)
3(4558 4621 4515)
3(4515 4501 4558)
3(4453 4501 4515)
3(4453 4515 4409)
3(4409 4397 4453)
3(4347 4397 4409)
3(4347 4409 4303)
3(4303 4291 4347)
3(4241 4291 4303)
3(4241 4303 4197)
3(4197 4184 4241)
3(4135 4184 4197)
3(4135 4197 4089)
3(4089 4078 4135)
3(3016 3111 3132)
3(3132 2931 3016)
3(2931 2909 3016)
3(2618 2705 2726)
3(2726 2527 2618)
3(2527 2518 2618)
3(2214 2314 2336)
3(2336 2143 2214)
3(2143 2118 2214)
3(1816 1917 1945)
3(1945 1745 1816)
3(1745 1717 1816)
3(1425 1519 1561)
3(1561 1366 1425)
3(1366 1330 1425)
3(1038 1137 1180)
3(1180 1003 1038)
3(1003 942 1038)
3(665 754 826)
3(826 678 665)
3(678 582 665)
3(374 426 557)
3(557 517 374)
3(517 356 374)
3(5363 5470 5474)
3(5474 5368 5363)
3(5257 5363 5368)
3(5368 5262 5257)
3(5151 5257 5262)
3(5262 5156 5151)
3(5045 5151 5156)
3(5156 5050 5045)
3(4939 5045 5050)
3(5050 4944 4939)
3(4833 4939 4944)
3(4944 4838 4833)
3(4727 4833 4838)
3(4838 4732 4727)
3(4621 4727 4732)
3(4732 4626 4621)
3(4515 4621 4626)
3(4626 4520 4515)
3(4409 4515 4520)
3(4520 4414 4409)
3(4303 4409 4414)
3(4414 4308 4303)
3(4202 4197 4303)
3(4303 4308 4202)
3(4096 4089 4197)
3(4197 4202 4096)
3(2959 3154 3213)
3(3213 2824 2959)
3(2824 2754 2959)
3(2561 2754 2824)
3(2824 2446 2561)
3(2446 2364 2561)
3(2167 2364 2446)
3(2446 2067 2167)
3(2067 1971 2167)
3(1789 1971 2067)
3(2067 1716 1789)
3(1716 1600 1789)
3(1421 1600 1716)
3(1716 1390 1421)
3(1390 1240 1421)
3(1070 1240 1390)
3(1390 1112 1070)
3(1112 916 1070)
3(783 916 1112)
3(1112 937 783)
3(937 694 783)
3(5368 5474 5478)
3(5478 5372 5368)
3(5262 5368 5372)
3(5372 5266 5262)
3(5156 5262 5266)
3(5266 5160 5156)
3(5050 5156 5160)
3(5160 5054 5050)
3(4944 5050 5054)
3(5054 4948 4944)
3(4838 4944 4948)
3(4948 4842 4838)
3(4732 4838 4842)
3(4842 4736 4732)
3(4626 4732 4736)
3(4736 4630 4626)
3(4520 4626 4630)
3(4630 4524 4520)
3(4418 4414 4520)
3(4520 4524 4418)
3(4312 4308 4414)
3(4414 4418 4312)
3(4206 4202 4308)
3(4308 4312 4206)
3(4105 4096 4202)
3(4202 4206 4105)
3(2911 2824 3213)
3(3213 3272 2911)
3(2824 2911 2547)
3(2547 2446 2824)
3(2446 2547 2189)
3(2189 2067 2446)
3(2067 2189 1861)
3(1861 1716 2067)
3(1716 1861 1568)
3(1568 1390 1716)
3(1390 1568 1333)
3(1333 1112 1390)
3(1191 937 1112)
3(1112 1333 1191)
3(2368 2383 2470)
3(2470 2464 2368)
3(2667 2669 2724)
3(2724 2722 2667)
3(2349 2325 2326)
3(2326 2373 2349)
3(2373 2372 2349)
3(1983 2003 2099)
3(2099 2071 1983)
3(2301 2266 2268)
3(2301 2268 2326)
3(2326 2325 2301)
3(1962 1952 1935)
3(1935 1940 1962)
3(1610 1640 1723)
3(1723 1695 1610)
3(1911 1914 1940)
3(1940 1935 1911)
3(1567 1547 1549)
3(1549 1569 1567)
3(1340 1249 1283)
3(1283 1368 1340)
3(1520 1521 1549)
3(1549 1547 1520)
3(1182 1159 1161)
3(1161 1188 1182)
3(1045 1002 925)
3(925 972 1045)
3(1159 1139 1142)
3(1142 1161 1159)
3(820 798 818)
3(820 818 851)
3(851 840 820)
3(702 767 803)
3(803 744 702)
3(776 752 778)
3(778 818 776)
3(818 798 776)
3(504 537 560)
3(560 529 504)
3(611 640 769)
3(611 769 666)
3(666 602 611)
3(769 739 666)
3(484 522 537)
3(537 504 484)
3(469 509 580)
3(580 534 469)
3(2747 2719 2722)
3(2722 2770 2747)
3(2770 2769 2747)
3(2325 2349 2348)
3(2348 2324 2325)
3(1952 1951 1928)
3(1928 1935 1952)
3(1178 1157 1159)
3(1159 1182 1178)
3(806 789 798)
3(798 820 806)
3(487 472 504)
3(504 529 487)
3(529 498 487)
3(428 392 440)
3(440 509 428)
3(509 469 428)
3(210 184 253)
3(210 253 297)
3(297 240 210)
3(3409 3406 3415)
3(3415 3417 3409)
3(3121 3144 3145)
3(3145 3091 3121)
3(3091 3089 3121)
3(3071 3089 3091)
3(3091 3052 3071)
3(3052 3050 3071)
3(2713 2740 2741)
3(2741 2684 2713)
3(2684 2682 2713)
3(2660 2682 2684)
3(2684 2640 2660)
3(2640 2638 2660)
3(2313 2335 2337)
3(2337 2278 2313)
3(2278 2277 2313)
3(2258 2277 2278)
3(2278 2233 2258)
3(2233 2232 2258)
3(1910 1937 1938)
3(1938 1883 1910)
3(1883 1880 1910)
3(1858 1880 1883)
3(1883 1836 1858)
3(1836 1835 1858)
3(1508 1533 1534)
3(1534 1482 1508)
3(1482 1480 1508)
3(1458 1480 1482)
3(1482 1436 1458)
3(1436 1435 1458)
3(1102 1125 1129)
3(1102 1129 1073)
3(1073 1071 1102)
3(1049 1071 1073)
3(1049 1073 1025)
3(1025 1023 1049)
3(691 713 718)
3(691 718 662)
3(662 658 691)
3(632 658 662)
3(632 662 609)
3(609 606 632)
3(223 250 254)
3(223 254 215)
3(215 201 223)
3(156 140 224)
3(156 224 253)
3(253 184 156)
3(176 201 215)
3(176 215 173)
3(173 153 176)
3(125 144 228)
3(125 228 204)
3(204 108 125)
3(2686 2684 2741)
3(2741 2744 2686)
3(3104 3111 3016)
3(3016 3011 3104)
3(2800 2807 2705)
3(2705 2698 2800)
3(2337 2338 2279)
3(2279 2278 2337)
3(2618 2605 2698)
3(2698 2705 2618)
3(2404 2414 2314)
3(2314 2302 2404)
3(1938 1941 1884)
3(1884 1883 1938)
3(2214 2202 2302)
3(2302 2314 2214)
3(2000 2016 1917)
3(1917 1902 2000)
3(1534 1536 1484)
3(1484 1482 1534)
3(1816 1805 1902)
3(1902 1917 1816)
3(1609 1621 1519)
3(1519 1509 1609)
3(1134 1079 1073)
3(1073 1129 1134)
3(1425 1410 1509)
3(1509 1519 1425)
3(1214 1234 1137)
3(1137 1114 1214)
3(720 668 662)
3(662 718 720)
3(1038 1014 1114)
3(1114 1137 1038)
3(823 845 754)
3(754 725 823)
3(215 254 272)
3(272 231 215)
3(665 631 725)
3(725 754 665)
3(357 441 496)
3(496 426 357)
3(169 190 257)
3(169 257 228)
3(228 144 169)
3(296 357 426)
3(426 374 296)
3(298 376 431)
3(431 362 298)
3(2757 2774 2872)
3(2872 2856 2757)
3(3136 3129 3031)
3(3031 3038 3136)
3(2722 2724 2776)
3(2776 2770 2722)
3(3170 3122 3129)
3(3129 3231 3170)
3(3231 3227 3170)
3(3389 3391 3421)
3(3410 3387 3389)
3(3389 3421 3410)
3(3421 3419 3410)
3(2925 2927 2982)
3(2982 2977 2925)
3(3081 3061 3062)
3(3062 3112 3081)
3(3112 3110 3081)
3(2906 2938 2939)
3(2548 2522 2524)
3(2524 2549 2548)
3(2129 2152 2151)
3(2151 2116 2129)
3(1738 1740 1760)
3(1760 1759 1738)
3(1348 1355 1371)
3(1371 1369 1348)
3(970 973 998)
3(998 988 970)
3(642 620 636)
3(636 654 642)
3(407 406 448)
3(407 448 462)
3(462 411 407)
3(3093 3091 3145)
3(3145 3147 3093)
3(3215 3111 3104)
3(3104 3207 3215)
3(2347 2350 2384)
3(2384 2339 2347)
3(2384 2350 2449)
3(2449 2438 2384)
3(2498 2467 2469)
3(2498 2469 2525)
3(2525 2524 2498)
3(2484 2438 2449)
3(2449 2550 2484)
3(2550 2535 2484)
3(2347 2297 2304)
3(2304 2350 2347)
3(2152 2129 2139)
3(2139 2180 2152)
3(2180 2171 2152)
3(2160 2205 2197)
3(2197 2150 2160)
3(1953 1964 2015)
3(2015 2001 1953)
3(2079 2083 2104)
3(2104 2070 2079)
3(2104 2083 2139)
3(2139 2129 2104)
3(2150 2101 2114)
3(2114 2160 2150)
3(1913 1919 1964)
3(1964 1953 1913)
3(1740 1742 1763)
3(1763 1760 1740)
3(1762 1766 1820)
3(1820 1814 1762)
3(1632 1622 1571)
3(1571 1582 1632)
3(1715 1742 1740)
3(1740 1713 1715)
3(1762 1714 1722)
3(1722 1766 1762)
3(1523 1540 1582)
3(1582 1571 1523)
3(1355 1359 1381)
3(1381 1371 1355)
3(1383 1398 1447)
3(1447 1437 1383)
3(1245 1209 1216)
3(1216 1260 1245)
3(1332 1337 1359)
3(1359 1355 1332)
3(1383 1342 1357)
3(1357 1398 1383)
3(1209 1158 1162)
3(1162 1216 1209)
3(973 978 1006)
3(1006 998 973)
3(1024 1040 1086)
3(1086 1061 1024)
3(898 850 874)
3(874 920 898)
3(951 954 978)
3(978 973 951)
3(976 1001 1040)
3(1040 1024 976)
3(799 755 804)
3(799 804 850)
3(850 830 799)
3(804 874 850)
3(654 636 660)
3(654 660 699)
3(699 671 654)
3(721 693 743)
3(721 743 804)
3(804 755 721)
3(595 578 639)
3(639 689 595)
3(689 621 595)
3(618 603 628)
3(628 660 618)
3(660 636 618)
3(653 621 689)
3(689 743 653)
3(743 693 653)
3(2927 2925 2870)
3(2870 2873 2927)
3(3110 3109 3080)
3(3080 3081 3110)
3(2522 2496 2498)
3(2498 2524 2522)
3(2116 2097 2104)
3(2104 2129 2116)
3(1713 1740 1738)
3(1738 1712 1713)
3(1320 1332 1355)
3(1355 1348 1320)
3(973 970 948)
3(948 951 973)
3(620 607 618)
3(618 636 620)
3(270 240 297)
3(270 297 363)
3(363 301 270)
3(152 172 167)
3(167 150 152)
3(264 279 277)
3(277 260 264)
3(3287 3267 3268)
3(3268 3289 3287)
3(3266 3281 3282)
3(3266 3282 3247)
3(3247 3246 3266)
3(2921 2948 2950)
3(2950 2891 2921)
3(2891 2890 2921)
3(2866 2890 2891)
3(2891 2843 2866)
3(2843 2842 2866)
3(2517 2536 2538)
3(2538 2485 2517)
3(2485 2483 2517)
3(2458 2483 2485)
3(2485 2436 2458)
3(2436 2435 2458)
3(2113 2137 2138)
3(2138 2082 2113)
3(2082 2081 2113)
3(2061 2081 2082)
3(2082 2035 2061)
3(2035 2033 2061)
3(1707 1733 1737)
3(1737 1683 1707)
3(1683 1682 1707)
3(1660 1682 1683)
3(1683 1633 1660)
3(1633 1631 1660)
3(1307 1331 1334)
3(1307 1334 1277)
3(1277 1276 1307)
3(1258 1276 1277)
3(1277 1232 1258)
3(1232 1229 1258)
3(892 919 923)
3(892 923 868)
3(868 865 892)
3(842 865 868)
3(842 868 821)
3(821 816 842)
3(463 488 494)
3(463 494 433)
3(433 424 463)
3(395 424 433)
3(395 433 367)
3(367 360 395)
3(135 152 150)
3(150 131 135)
3(121 105 203)
3(203 224 121)
3(224 140 121)
3(45 36 24)
3(24 39 45)
3(62 74 101)
3(101 93 62)
3(93 55 62)
3(2647 2623 2625)
3(2647 2625 2667)
3(2667 2666 2647)
3(2685 2687 2717)
3(2717 2716 2685)
3(2621 2645 2642)
3(2642 2610 2621)
3(2221 2223 2248)
3(2248 2246 2221)
3(1859 1855 1833)
3(1833 1837 1859)
3(1467 1446 1449)
3(1449 1470 1467)
3(1083 1059 1060)
3(1060 1089 1083)
3(701 717 735)
3(735 722 701)
3(436 427 468)
3(436 468 484)
3(484 445 436)
3(458 434 425)
3(425 442 458)
3(399 387 405)
3(405 418 399)
3(3418 3419 3454)
3(3418 3454 3452)
3(3452 3416 3418)
3(3415 3413 3451)
3(3415 3451 3453)
3(3453 3417 3415)
3(3287 3289 3352)
3(3326 3286 3287)
3(3287 3352 3326)
3(3352 3351 3326)
3(3412 3404 3405)
3(3405 3414 3412)
3(2893 2891 2950)
3(2950 2952 2893)
3(3056 3094 3099)
3(3099 3006 3056)
3(3006 3000 3056)
3(2953 3000 3006)
3(3006 2898 2953)
3(2898 2894 2953)
3(2538 2541 2488)
3(2488 2485 2538)
3(2646 2688 2693)
3(2693 2601 2646)
3(2601 2594 2646)
3(2543 2594 2601)
3(2601 2495 2543)
3(2495 2489 2543)
3(2138 2140 2084)
3(2084 2082 2138)
3(2238 2282 2294)
3(2294 2193 2238)
3(2193 2183 2238)
3(2142 2183 2193)
3(2193 2093 2142)
3(2093 2085 2142)
3(1739 1684 1683)
3(1683 1737 1739)
3(1839 1886 1893)
3(1893 1795 1839)
3(1795 1784 1839)
3(1741 1784 1795)
3(1795 1692 1741)
3(1692 1685 1741)
3(1336 1280 1277)
3(1277 1334 1336)
3(1440 1488 1496)
3(1496 1397 1440)
3(1397 1385 1440)
3(1339 1385 1397)
3(1339 1397 1297)
3(1297 1285 1339)
3(926 869 868)
3(868 923 926)
3(1035 1085 1099)
3(1035 1099 999)
3(999 980 1035)
3(930 980 999)
3(930 999 897)
3(897 876 930)
3(433 494 501)
3(501 444 433)
3(622 674 700)
3(622 700 599)
3(599 574 622)
3(518 574 599)
3(518 599 491)
3(491 466 518)
3(123 93 101)
3(101 134 123)
3(213 251 290)
3(213 290 239)
3(239 183 213)
3(163 183 239)
3(163 239 220)
3(220 154 163)
3(2672 2628 2648)
3(2672 2648 2748)
3(2748 2729 2672)
3(2549 2524 2525)
3(2549 2525 2574)
3(2574 2573 2549)
3(2580 2535 2550)
3(2580 2550 2648)
3(2648 2628 2580)
3(1963 1943 1946)
3(1946 1993 1963)
3(1993 1986 1963)
3(2025 2002 2013)
3(2013 2034 2025)
3(2014 1986 1993)
3(2014 1993 2042)
3(2042 2037 2014)
3(1916 1889 1894)
3(1894 1946 1916)
3(1946 1943 1916)
3(1862 1859 1837)
3(1837 1840 1862)
3(1863 1843 1845)
3(1845 1894 1863)
3(1894 1889 1863)
3(1560 1565 1614)
3(1614 1598 1560)
3(1572 1550 1560)
3(1560 1598 1572)
3(1618 1619 1645)
3(1645 1642 1618)
3(1623 1598 1614)
3(1623 1614 1663)
3(1663 1649 1623)
3(1535 1544 1565)
3(1565 1560 1535)
3(1470 1449 1450)
3(1450 1471 1470)
3(1481 1461 1468)
3(1468 1512 1481)
3(1510 1506 1481)
3(1481 1512 1510)
3(1193 1170 1186)
3(1193 1186 1237)
3(1237 1217 1193)
3(1239 1261 1259)
3(1259 1236 1239)
3(1241 1217 1237)
3(1241 1237 1279)
3(1279 1263 1241)
3(1152 1128 1141)
3(1152 1141 1186)
3(1186 1170 1152)
3(1089 1060 1069)
3(1069 1092 1089)
3(1105 1078 1091)
3(1105 1091 1141)
3(1141 1128 1105)
3(552 539 613)
3(613 639 552)
3(639 578 552)
3(489 492 462)
3(462 448 489)
3(528 526 602)
3(602 613 528)
3(613 539 528)
3(2793 2769 2770)
3(2770 2823 2793)
3(2823 2821 2793)
3(2716 2717 2745)
3(2745 2742 2716)
3(2820 2819 2788)
3(2788 2791 2820)
3(2399 2402 2424)
3(2424 2422 2399)
3(1999 2002 2025)
3(2025 2023 1999)
3(1642 1618 1618)
3(1618 1642 1642)
3(1231 1236 1259)
3(1259 1257 1231)
3(870 847 854)
3(854 878 870)
3(521 498 529)
3(521 529 547)
3(547 531 521)
3(529 559 547)
3(434 458 470)
3(470 454 434)
3(506 490 499)
3(499 524 506)
3(406 410 459)
3(459 448 406)
3(341 301 363)
3(363 440 341)
3(440 392 341)
3(279 300 295)
3(295 277 279)
3(3404 3412 3411)
3(3411 3402 3404)
3(3316 3334 3336)
3(3316 3336 3282)
3(3282 3281 3316)
3(3119 3120 3088)
3(3088 3087 3119)
3(3169 3189 3191)
3(3169 3191 3145)
3(3145 3144 3169)
3(3167 3186 3188)
3(3188 3168 3167)
3(3087 3088 3069)
3(3069 3068 3087)
3(3026 3050 3052)
3(3052 2997 3026)
3(2997 2996 3026)
3(3024 3025 2995)
3(2995 2994 3024)
3(2681 2680 2711)
3(2711 2712 2681)
3(2765 2787 2789)
3(2789 2741 2765)
3(2741 2740 2765)
3(2785 2786 2764)
3(2764 2763 2785)
3(2680 2681 2659)
3(2659 2658 2680)
3(2619 2638 2640)
3(2640 2590 2619)
3(2590 2588 2619)
3(2616 2617 2587)
3(2587 2585 2616)
3(2275 2274 2311)
3(2311 2312 2275)
3(2358 2381 2382)
3(2382 2337 2358)
3(2337 2335 2358)
3(2379 2380 2357)
3(2357 2356 2379)
3(2274 2275 2257)
3(2257 2255 2274)
3(2213 2232 2233)
3(2233 2181 2213)
3(2181 2179 2213)
3(2178 2177 2211)
3(2211 2212 2178)
3(1879 1877 1908)
3(1908 1909 1879)
3(1961 1980 1982)
3(1982 1938 1961)
3(1938 1937 1961)
3(1978 1979 1960)
3(1960 1959 1978)
3(1877 1879 1857)
3(1857 1856 1877)
3(1810 1835 1836)
3(1836 1780 1810)
3(1780 1778 1810)
3(1776 1775 1808)
3(1808 1809 1776)
3(1478 1477 1504)
3(1504 1505 1478)
3(1559 1580 1581)
3(1581 1534 1559)
3(1534 1533 1559)
3(1578 1579 1558)
3(1558 1557 1578)
3(1478 1457 1456)
3(1456 1477 1478)
3(1408 1435 1436)
3(1436 1380 1408)
3(1380 1379 1408)
3(1377 1406 1407)
3(1407 1378 1377)
3(1067 1098 1100)
3(1100 1068 1067)
3(1153 1174 1177)
3(1153 1177 1129)
3(1129 1125 1153)
3(1171 1173 1150)
3(1150 1148 1171)
3(1068 1048 1047)
3(1047 1067 1068)
3(997 1023 1025)
3(997 1025 971)
3(971 969 997)
3(966 995 996)
3(996 968 966)
3(652 685 686)
3(686 655 652)
3(741 763 766)
3(741 766 718)
3(718 713 741)
3(762 738 736)
3(736 761 762)
3(655 630 629)
3(629 652 655)
3(579 606 609)
3(579 609 549)
3(549 544 579)
3(541 572 576)
3(576 542 541)
3(193 219 221)
3(221 199 193)
3(271 294 302)
3(271 302 254)
3(254 250 271)
3(267 287 291)
3(291 269 267)
3(171 193 199)
3(199 174 171)
3(133 153 173)
3(133 173 132)
3(132 107 133)
3(94 120 124)
3(124 100 94)
3(103 108 204)
3(204 203 103)
3(203 105 103)
3(72 55 93)
3(93 106 72)
3(106 84 72)
3(39 24 13)
3(13 26 39)
3(2845 2843 2891)
3(2891 2893 2845)
3(2746 2792 2796)
3(2796 2693 2746)
3(2693 2688 2746)
3(2847 2894 2898)
3(2898 2796 2847)
3(2796 2792 2847)
3(2440 2436 2485)
3(2485 2488 2440)
3(2342 2389 2397)
3(2397 2294 2342)
3(2294 2282 2342)
3(2443 2489 2495)
3(2495 2397 2443)
3(2397 2389 2443)
3(2036 2035 2082)
3(2082 2084 2036)
3(1942 1987 1992)
3(1992 1893 1942)
3(1893 1886 1942)
3(2038 2085 2093)
3(2093 1992 2038)
3(1992 1987 2038)
3(1639 1633 1683)
3(1683 1684 1639)
3(1543 1587 1596)
3(1596 1496 1543)
3(1496 1488 1543)
3(1643 1685 1692)
3(1692 1596 1643)
3(1596 1587 1643)
3(1235 1232 1277)
3(1277 1280 1235)
3(1138 1184 1195)
3(1138 1195 1099)
3(1099 1085 1138)
3(1238 1285 1297)
3(1297 1195 1238)
3(1195 1184 1238)
3(821 868 869)
3(869 825 821)
3(728 781 801)
3(728 801 700)
3(700 674 728)
3(827 876 897)
3(827 897 801)
3(801 781 827)
3(367 433 444)
3(444 383 367)
3(285 335 388)
3(285 388 290)
3(290 251 285)
3(403 466 491)
3(403 491 388)
3(388 335 403)
3(2778 2729 2748)
3(2748 2849 2778)
3(2849 2832 2778)
3(2928 2927 2873)
3(2873 2875 2928)
3(2879 2832 2849)
3(2849 2954 2879)
3(2954 2935 2879)
3(3109 3110 3161)
3(3135 3107 3109)
3(3109 3161 3135)
3(3161 3160 3135)
3(3253 3254 3294)
3(3268 3252 3253)
3(3253 3294 3268)
3(3294 3289 3268)
3(3256 3258 3306)
3(3306 3303 3256)
3(2951 2949 2920)
3(2920 2922 2951)
3(2987 3015 3014)
3(3014 2980 2987)
3(2975 2976 3027)
3(2988 2966 2975)
3(2975 3027 2988)
3(3027 3017 2988)
3(2572 2573 2625)
3(2625 2623 2572)
3(2596 2571 2572)
3(2572 2623 2596)
3(2545 2544 2509)
3(2610 2589 2595)
3(2595 2621 2610)
3(2683 2685 2716)
3(2716 2714 2683)
3(2642 2644 2610)
3(2198 2201 2223)
3(2223 2221 2198)
3(1811 1813 1837)
3(1837 1833 1811)
3(1446 1420 1423)
3(1423 1449 1446)
3(1059 1037 1039)
3(1039 1060 1059)
3(717 701 690)
3(690 697 717)
3(421 411 462)
3(462 468 421)
3(468 427 421)
3(389 394 368)
3(368 366 389)
3(387 375 401)
3(401 405 387)
3(408 425 434)
3(378 364 387)
3(387 399 378)
3(366 368 348)
3(348 346 366)
3(364 355 375)
3(375 387 364)
3(3283 3249 3247)
3(3247 3282 3283)
3(3150 3195 3201)
3(3201 3099 3150)
3(3099 3094 3150)
3(3250 3284 3291)
3(3250 3291 3201)
3(3201 3195 3250)
3(2201 2171 2180)
3(2180 2230 2201)
3(2230 2223 2201)
3(2139 2144 2184)
3(2184 2180 2139)
3(2180 2184 2241)
3(2241 2230 2180)
3(2050 2025 2034)
3(2034 2060 2050)
3(2139 2083 2088)
3(2088 2144 2139)
3(2063 2037 2042)
3(2063 2042 2088)
3(2088 2083 2063)
3(1813 1815 1840)
3(1840 1837 1813)
3(1764 1743 1747)
3(1747 1798 1764)
3(1798 1792 1764)
3(1818 1792 1798)
3(1798 1845 1818)
3(1845 1843 1818)
3(1664 1642 1645)
3(1645 1666 1664)
3(1719 1693 1706)
3(1719 1706 1747)
3(1747 1743 1719)
3(1667 1649 1663)
3(1667 1663 1706)
3(1706 1693 1667)
3(1449 1423 1433)
3(1433 1450 1449)
3(1384 1362 1370)
3(1370 1422 1384)
3(1422 1411 1384)
3(1438 1411 1422)
3(1438 1422 1468)
3(1468 1461 1438)
3(1261 1284 1278)
3(1278 1259 1261)
3(1341 1315 1329)
3(1341 1329 1370)
3(1370 1362 1341)
3(1289 1263 1279)
3(1289 1279 1329)
3(1329 1315 1289)
3(1060 1039 1050)
3(1050 1069 1060)
3(1013 989 1008)
3(1008 1051 1013)
3(1051 1036 1013)
3(1058 1036 1051)
3(1058 1051 1091)
3(1091 1078 1058)
3(902 878 900)
3(902 900 934)
3(934 927 902)
3(900 949 934)
3(965 949 955)
3(955 1008 965)
3(1008 989 965)
3(949 900 921)
3(921 955 949)
3(2714 2716 2742)
3(2742 2739 2714)
3(2788 2819 2816)
3(2816 2777 2788)
3(2922 2920 2889)
3(2889 2892 2922)
3(2816 2819 2844)
3(2844 2840 2816)
3(3106 3101 3078)
3(3014 3040 3039)
3(3039 3009 3014)
3(2985 2980 3014)
3(3014 3009 2985)
3(2422 2424 2448)
3(2448 2447 2422)
3(2025 2050 2047)
3(2047 2023 2025)
3(1642 1664 1664)
3(1664 1642 1642)
3(1257 1259 1278)
3(1278 1268 1257)
3(899 870 878)
3(878 902 899)
3(547 559 583)
3(583 564 547)
3(527 506 524)
3(524 540 527)
3(175 157 184)
3(175 184 210)
3(210 191 175)
3(200 218 209)
3(209 198 200)
3(202 191 210)
3(202 210 240)
3(240 222 202)
3(268 252 270)
3(268 270 301)
3(301 280 268)
3(230 209 218)
3(218 232 230)
3(233 222 240)
3(233 240 270)
3(270 252 233)
3(3196 3233 3230)
3(3263 3295 3277)
3(3118 3119 3087)
3(3087 3086 3118)
3(3166 3185 3186)
3(3186 3167 3166)
3(3226 3246 3247)
3(3226 3247 3191)
3(3191 3189 3226)
3(3280 3265 3264)
3(3264 3279 3280)
3(3186 3223 3224)
3(3224 3188 3186)
3(3262 3276 3279)
3(3279 3264 3262)
3(3185 3221 3223)
3(3223 3186 3185)
3(3086 3087 3068)
3(3068 3067 3086)
3(3023 3024 2994)
3(2994 2993 3023)
3(2974 2996 2997)
3(2997 2950 2974)
3(2950 2948 2974)
3(2917 2919 2888)
3(2888 2887 2917)
3(2994 2995 2973)
3(2973 2972 2994)
3(2916 2917 2887)
3(2887 2886 2916)
3(2993 2994 2972)
3(2972 2971 2993)
3(2710 2711 2680)
3(2680 2679 2710)
3(2784 2785 2763)
3(2763 2762 2784)
3(2817 2842 2843)
3(2843 2789 2817)
3(2789 2787 2817)
3(2887 2888 2865)
3(2865 2863 2887)
3(2814 2815 2786)
3(2786 2785 2814)
3(2886 2887 2863)
3(2863 2862 2886)
3(2813 2814 2785)
3(2785 2784 2813)
3(2679 2680 2658)
3(2658 2656 2679)
3(2615 2616 2585)
3(2585 2584 2615)
3(2564 2588 2590)
3(2590 2538 2564)
3(2538 2536 2564)
3(2515 2516 2481)
3(2481 2480 2515)
3(2585 2587 2562)
3(2562 2560 2585)
3(2514 2515 2480)
3(2480 2477 2514)
3(2584 2585 2560)
3(2560 2559 2584)
3(2274 2273 2310)
3(2310 2311 2274)
3(2356 2355 2378)
3(2378 2379 2356)
3(2413 2435 2436)
3(2436 2382 2413)
3(2382 2381 2413)
3(2457 2456 2480)
3(2480 2481 2457)
3(2380 2379 2411)
3(2411 2412 2380)
3(2456 2455 2477)
3(2477 2480 2456)
3(2379 2378 2410)
3(2410 2411 2379)
3(2273 2274 2255)
3(2255 2254 2273)
3(2210 2211 2177)
3(2177 2176 2210)
3(2161 2179 2181)
3(2181 2138 2161)
3(2138 2137 2161)
3(2111 2112 2080)
3(2080 2078 2111)
3(2177 2178 2159)
3(2159 2158 2177)
3(2110 2111 2078)
3(2078 2077 2110)
3(2176 2177 2158)
3(2158 2157 2176)
3(1877 1876 1907)
3(1907 1908 1877)
3(1959 1958 1977)
3(1977 1978 1959)
3(2012 2033 2035)
3(2035 1982 2012)
3(1982 1980 2012)
3(2059 2058 2078)
3(2078 2080 2059)
3(1979 1978 2009)
3(2009 2011 1979)
3(2058 2057 2077)
3(2077 2078 2058)
3(1978 1977 2008)
3(2008 2009 1978)
3(1876 1877 1856)
3(1856 1854 1876)
3(1807 1808 1775)
3(1775 1774 1807)
3(1757 1778 1780)
3(1780 1737 1757)
3(1737 1733 1757)
3(1705 1681 1679)
3(1679 1703 1705)
3(1775 1776 1756)
3(1756 1754 1775)
3(1703 1679 1678)
3(1678 1702 1703)
3(1774 1775 1754)
3(1754 1753 1774)
3(1477 1476 1503)
3(1503 1504 1477)
3(1557 1556 1577)
3(1577 1578 1557)
3(1608 1631 1633)
3(1633 1581 1608)
3(1581 1580 1608)
3(1658 1656 1679)
3(1679 1681 1658)
3(1579 1578 1606)
3(1606 1607 1579)
3(1656 1655 1678)
3(1678 1679 1656)
3(1578 1577 1605)
3(1605 1606 1578)
3(1476 1477 1456)
3(1456 1455 1476)
3(1406 1377 1376)
3(1376 1405 1406)
3(1358 1379 1380)
3(1358 1380 1334)
3(1334 1331 1358)
3(1306 1275 1274)
3(1274 1305 1306)
3(1378 1356 1354)
3(1354 1377 1378)
3(1305 1274 1273)
3(1273 1304 1305)
3(1377 1354 1353)
3(1353 1376 1377)
3(1066 1097 1098)
3(1098 1067 1066)
3(1148 1147 1169)
3(1169 1171 1148)
3(1206 1229 1232)
3(1232 1177 1206)
3(1177 1174 1206)
3(1256 1255 1274)
3(1274 1275 1256)
3(1173 1171 1202)
3(1202 1205 1173)
3(1255 1254 1273)
3(1273 1274 1255)
3(1171 1169 1201)
3(1201 1202 1171)
3(1067 1047 1046)
3(1046 1066 1067)
3(995 966 963)
3(963 994 995)
3(947 969 971)
3(947 971 923)
3(923 919 947)
3(890 863 862)
3(862 889 890)
3(968 946 944)
3(944 966 968)
3(889 862 860)
3(860 887 889)
3(966 944 943)
3(943 963 966)
3(650 684 685)
3(685 652 650)
3(734 760 761)
3(761 736 734)
3(792 816 821)
3(792 821 766)
3(766 763 792)
3(837 862 863)
3(863 839 837)
3(761 790 791)
3(791 762 761)
3(836 860 862)
3(862 837 836)
3(760 788 790)
3(790 761 760)
3(652 629 627)
3(627 650 652)
3(572 541 538)
3(538 571 572)
3(519 544 549)
3(519 549 494)
3(494 488 519)
3(419 453 457)
3(457 422 419)
3(542 515 513)
3(513 541 542)
3(453 419 417)
3(417 451 453)
3(541 513 512)
3(512 538 541)
3(189 217 219)
3(219 193 189)
3(266 286 287)
3(287 267 266)
3(325 360 367)
3(325 367 302)
3(302 294 325)
3(386 419 422)
3(422 391 386)
3(287 316 320)
3(320 291 287)
3(385 417 419)
3(419 386 385)
3(286 315 316)
3(316 287 286)
3(145 129 156)
3(145 156 184)
3(184 157 145)
3(91 104 99)
3(99 83 91)
3(119 102 140)
3(119 140 156)
3(156 129 119)
3(83 70 76)
3(76 91 83)
3(71 56 105)
3(105 121 71)
3(121 77 71)
3(90 77 121)
3(121 140 90)
3(140 102 90)
3(168 189 193)
3(193 171 168)
3(89 116 120)
3(120 94 89)
3(92 107 132)
3(92 132 101)
3(101 74 92)
3(41 28 27)
3(27 43 41)
3(73 94 100)
3(100 78 73)
3(27 28 16)
3(16 22 27)
3(64 89 94)
3(94 73 64)
3(3248 3149 3171)
3(3171 3360 3248)
3(3360 3335 3248)
3(3329 3335 3443)
3(3443 3439 3329)
3(3399 3322 3329)
3(3329 3439 3399)
3(3129 3136 3236)
3(3236 3231 3129)
3(2299 2264 2266)
3(2266 2301 2299)
3(2299 2324 2322)
3(2322 2295 2299)
3(2264 2299 2295)
3(2295 2262 2264)
3(1871 1882 1911)
3(1911 1901 1871)
3(1490 1495 1520)
3(1135 1109 1113)
3(1113 1139 1135)
3(745 752 776)
3(776 765 745)
3(779 753 765)
3(765 789 779)
3(737 745 765)
3(765 753 737)
3(2373 2326 2339)
3(2339 2384 2373)
3(2402 2372 2373)
3(2373 2426 2402)
3(2426 2424 2402)
3(2373 2384 2438)
3(2438 2426 2373)
3(2326 2268 2281)
3(2281 2339 2326)
3(2248 2223 2230)
3(2248 2230 2268)
3(2268 2266 2248)
3(2268 2230 2241)
3(2241 2281 2268)
3(1569 1549 1550)
3(1550 1572 1569)
3(1569 1595 1590)
3(1590 1567 1569)
3(1595 1569 1572)
3(1572 1598 1595)
3(1521 1524 1550)
3(1550 1549 1521)
3(1521 1520 1495)
3(1495 1497 1521)