
5490
(
(0.001126139 0 -0.002585707)
(0.003871675 0 -0.001700813)
(0.007303596 0 -0.0005946966)
(0.001241938 0 0.009850082)
(0.0115935 0 0.0007879494)
(0.003585466 0 0.01153201)
(0.006514877 0 0.01363442)
(0.001009408 0 -0.01512153)
(0.003877389 0 -0.01481219)
(0.007462366 0 -0.01442551)
(0.01695587 0 0.002516257)
(0.01194359 0 -0.01394217)
(0.01017664 0 0.01626243)
(0.01754511 0 -0.013338)
(-0.02187433 0 0.01006534)
(-0.02078662 0 0.01273702)
(0.01475384 0 0.01954745)
(-0.01942697 0 0.01607662)
(-0.01772741 0 0.02025112)
(0.0008799568 0 -0.02902342)
(0.003764155 0 -0.02897436)
(0.007369403 0 -0.02891304)
(-0.01560296 0 0.02546924)
(0.01187596 0 -0.02883639)
(0.01750916 0 -0.02874057)
(0.03988484 0 0.00387545)
(0.03858351 0 -0.01298045)
(-0.01241063 0 0.0398097)
(0.01871424 0 0.03778367)
(0.0007476936 0 -0.04322729)
(0.00363226 0 -0.04324417)
(0.007237967 0 -0.04326528)
(-0.04362481 0 0.01026787)
(0.0117451 0 -0.04329166)
(-0.04329219 0 0.01313325)
(-0.04287641 0 0.01671496)
(0.01737902 0 -0.04332464)
(-0.0423567 0 0.02119211)
(0.04216454 0 0.02180076)
(0.03798088 0 -0.02867045)
(-0.04170705 0 0.02678855)
(0.01721246 0 0.05111979)
(0.04138589 0 0.03635482)
(-0.01196618 0 0.05401717)
(-0.04046761 0 0.040077)
(0.03765715 0 -0.04345911)
(0.0006144557 0 -0.05753582)
(0.003498952 0 -0.05756209)
(0.007104571 0 -0.05759492)
(0.0116116 0 -0.05763596)
(0.01724538 0 -0.05768727)
(0.06238253 0 0.003728158)
(0.06139293 0 -0.01314402)
(0.04076081 0 0.0501036)
(0.0632425 0 0.02087446)
(0.01640025 0 0.06504876)
(0.06068331 0 -0.02889224)
(-0.06653849 0 0.01048124)
(-0.03987028 0 0.05457103)
(-0.06645788 0 0.01336473)
(-0.06635712 0 0.01696909)
(0.03745763 0 -0.05790056)
(-0.01183672 0 0.06813117)
(-0.06623117 0 0.02147454)
(-0.06607373 0 0.02710635)
(0.0004806306 0 -0.07190742)
(0.003365121 0 -0.07193428)
(0.006970734 0 -0.07196785)
(0.06307078 0 0.03576728)
(0.01147775 0 -0.07200982)
(0.01711152 0 -0.07206228)
(0.0601255 0 -0.04371835)
(0.04031182 0 0.06406151)
(-0.06546575 0 0.04006946)
(-0.03944747 0 0.06892095)
(0.06305055 0 0.04978757)
(0.03729508 0 -0.0722787)
(0.0598624 0 -0.05817786)
(-0.06496705 0 0.05444812)
(0.0003465147 0 -0.08631025)
(0.003231005 0 -0.08633711)
(0.006836618 0 -0.08637068)
(0.01134363 0 -0.08641265)
(0.0169774 0 -0.08646511)
(0.06271844 0 0.06373957)
(-0.08947899 0 0.01069486)
(-0.08944657 0 0.01357929)
(-0.08940604 0 0.01718483)
(-0.08935539 0 0.02169176)
(-0.08929206 0 0.02732542)
(0.0596226 0 -0.07253326)
(0.03715428 0 -0.08667369)
(-0.06458172 0 0.06879087)
(0.01538114 0 0.09346048)
(-0.08895204 0 0.04018113)
(0.0002122807 0 -0.1007258)
(0.003096771 0 -0.1007526)
(0.006702384 0 -0.1007862)
(0.0112094 0 -0.1008282)
(0.01684317 0 -0.1008806)
(-0.08855929 0 0.05443849)
(-0.0383314 0 0.09729244)
(0.05948392 0 -0.08693096)
(0.1071263 0 0.002827746)
(0.0370147 0 -0.1010803)
(0.1060613 0 -0.02871986)
(0.06209655 0 0.09195558)
(-0.08818795 0 0.06876389)
(0.1073788 0 0.03407175)
(-0.1123151 0 0.0109075)
(-0.112288 0 0.01379199)
(-0.1122541 0 0.0173976)
(-0.1122117 0 0.02190461)
(7.800468e-005 0 -0.1151458)
(0.002962495 0 -0.1151726)
(0.006568108 0 -0.1152062)
(-0.1121587 0 0.02753838)
(0.01107512 0 -0.1152482)
(0.01670889 0 -0.1153006)
(0.05931034 0 -0.1013116)
(-0.1119314 0 0.04035159)
(0.1050336 0 -0.05849624)
(0.03688115 0 -0.1154973)
(0.01488927 0 0.1218535)
(-0.1116256 0 0.05452851)
(0.1073423 0 0.06309117)
(-5.628536e-005 0 -0.1295673)
(0.002828205 0 -0.1295942)
(0.006433818 0 -0.1296277)
(0.05917764 0 -0.1157314)
(0.01094083 0 -0.1296697)
(0.0165746 0 -0.1297222)
(-0.08733248 0 0.09744433)
(-0.1113479 0 0.06876516)
(-0.0380642 0 0.1257157)
(0.03674887 0 -0.1299168)
(0.0617137 0 0.120259)
(-0.1350896 0 0.01111957)
(-0.1350628 0 0.01400406)
(-0.1350292 0 0.01760967)
(0.1045677 0 -0.08746725)
(-0.1349872 0 0.02211669)
(-0.1349348 0 0.02775046)
(-0.1347559 0 0.04054544)
(0.1070814 0 0.09151243)
(0.05904148 0 -0.1301406)
(-0.0001905802 0 -0.1439893)
(0.00269391 0 -0.1440162)
(0.006299523 0 -0.1440498)
(0.01080654 0 -0.1440917)
(0.01644031 0 -0.1441442)
(-0.1345047 0 0.05468447)
(0.03661965 0 -0.1443407)
(-0.1342334 0 0.0689129)
(0.01446567 0 0.1504394)
(-0.08691857 0 0.1260363)
(0.1041112 0 -0.1162379)
(0.05892968 0 -0.1445778)
(-0.1578341 0 0.01133136)
(-0.0003248796 0 -0.1584119)
(-0.1578072 0 0.01421585)
(0.002559611 0 -0.1584387)
(0.006165224 0 -0.1584723)
(-0.03767646 0 0.1540776)
(-0.1577737 0 0.01782147)
(0.01067224 0 -0.1585143)
(-0.1577317 0 0.02232848)
(0.01630601 0 -0.1585667)
(-0.1576792 0 0.02796225)
(0.1069666 0 0.1197822)
(0.06138632 0 0.1487961)
(-0.1575263 0 0.04074742)
(0.03648822 0 -0.1587648)
(-0.1336681 0 0.09751038)
(-0.1573195 0 0.05485988)
(0.05879038 0 -0.1589944)
(-0.1571104 0 0.0690389)
(-0.000459198 0 -0.1728365)
(0.002425292 0 -0.1728633)
(0.006030905 0 -0.1728969)
(0.01053792 0 -0.1729389)
(0.01617169 0 -0.1729913)
(0.03636065 0 -0.1731972)
(-0.08644248 0 0.1545745)
(0.1039362 0 -0.1451132)
(-0.1805663 0 0.01154304)
(-0.1805394 0 0.01442753)
(-0.1805058 0 0.01803314)
(-0.1804639 0 0.02254016)
(-0.1804114 0 0.02817393)
(0.1067031 0 0.1483322)
(0.05867986 0 -0.1734478)
(-0.1332313 0 0.1260937)
(-0.180272 0 0.04095426)
(-0.0005935875 0 -0.1872687)
(0.002290903 0 -0.1872955)
(0.005896516 0 -0.1873291)
(0.01040353 0 -0.1873711)
(0.0160373 0 -0.1874235)
(-0.1800886 0 0.05505543)
(0.03623513 0 -0.1876416)
(-0.1798787 0 0.06923616)
(0.0585638 0 -0.1878971)
(0.1964023 0 -0.02909666)
(0.1968245 0 0.03213936)
(-0.0007281895 0 -0.2017237)
(0.002156301 0 -0.2017506)
(0.005761914 0 -0.2017841)
(0.01026893 0 -0.2018261)
(0.0159027 0 -0.2018786)
(0.1036639 0 -0.1739955)
(-0.2032942 0 0.01175468)
(-0.2032673 0 0.01463917)
(-0.1328624 0 0.1546178)
(-0.2032337 0 0.01824478)
(-0.1794152 0 0.09774244)
(-0.2031918 0 0.0227518)
(-0.2031393 0 0.02838557)
(0.0361198 0 -0.2021236)
(-0.203008 0 0.0411627)
(0.01400873 0 0.2075388)
(-0.202844 0 0.05525363)
(0.05850771 0 -0.2024278)
(-0.2026723 0 0.06940848)
(0.1952816 0 -0.08829697)
(-0.0008633141 0 -0.2162348)
(0.002021172 0 -0.2162622)
(0.00562678 0 -0.2162963)
(0.1967299 0 0.0904517)
(0.01013379 0 -0.216339)
(0.01576755 0 -0.2163923)
(-0.1789896 0 0.1262888)
(0.03601265 0 -0.2166854)
(0.05842131 0 -0.2170019)
(-0.2260208 0 0.0119663)
(-0.225994 0 0.01485079)
(-0.2259604 0 0.01845641)
(-0.2259184 0 0.02296342)
(-0.225866 0 0.02859719)
(-0.08467171 0 0.211493)
(0.1037064 0 -0.203166)
(-0.2257387 0 0.04137275)
(-0.0009995262 0 -0.2308628)
(0.001884879 0 -0.2308976)
(0.005490386 0 -0.2309411)
(0.009997269 0 -0.2309955)
(0.1061929 0 0.2055606)
(0.01563087 0 -0.2310635)
(-0.2255829 0 0.05545978)
(0.03595271 0 -0.2314749)
(-0.2254068 0 0.06961729)
(-0.1786053 0 0.1548549)
(0.05850127 0 -0.2318727)
(0.1946291 0 -0.1462816)
(-0.2250114 0 0.09806209)
(-0.001137603 0 -0.245691)
(0.001745602 0 -0.2457812)
(0.1968173 0 0.1474661)
(0.005349608 0 -0.2458939)
(0.009854615 0 -0.2460349)
(0.01548587 0 -0.246211)
(-0.2487472 0 0.01217793)
(-0.2487203 0 0.01506242)
(-0.2486868 0 0.01866803)
(0.03599158 0 -0.2468402)
(-0.2486448 0 0.02317504)
(-0.2485923 0 0.02880881)
(-0.2484677 0 0.04158325)
(0.0586671 0 -0.2472495)
(-0.2483203 0 0.05566578)
(0.1038283 0 -0.2330604)
(-0.2481665 0 0.06980975)
(-0.2246224 0 0.1265576)
(-0.001276629 0 -0.2606211)
(0.001589736 0 -0.2609451)
(0.005172693 0 -0.26135)
(0.009651389 0 -0.2618562)
(0.01524976 0 -0.262489)
(0.01364291 0 0.2645863)
(0.03632831 0 -0.2634382)
(0.05921465 0 -0.2638711)
(-0.2714735 0 0.01238955)
(-0.2714466 0 0.01527404)
(-0.2714131 0 0.01887965)
(-0.2713711 0 0.02338667)
(-0.2242716 0 0.1550491)
(-0.2713186 0 0.02902044)
(-0.2711954 0 0.04179448)
(-0.001408168 0 -0.2747472)
(0.001335262 0 -0.2756386)
(-0.1777718 0 0.2120097)
(-0.2710508 0 0.05587557)
(0.00476455 0 -0.2767528)
(0.00905116 0 -0.2781456)
(-0.2708922 0 0.07002148)
(0.01440942 0 -0.2798866)
(-0.08413415 0 0.2683248)
(0.1944683 0 -0.2047078)
(0.1057909 0 0.2625867)
(0.1966236 0 0.2046069)
(0.03728115 0 -0.2818171)
(0.1043964 0 -0.2650287)
(-0.2705416 0 0.09843112)
(0.2865992 0 0.03083046)
(0.05977931 0 -0.2820463)
(0.2867654 0 -0.0302826)
(-0.001551474 0 -0.2901369)
(0.000721298 0 -0.2919133)
(-0.02084278 0 -0.2921653)
(0.003562263 0 -0.2941338)
(-0.2941998 0 0.01260117)
(-0.2941729 0 0.01548566)
(-0.2941394 0 0.01909127)
(-0.2940974 0 0.02359829)
(-0.01943891 0 -0.2946852)
(-0.2940449 0 0.02923206)
(-0.2939228 0 0.04200588)
(0.007113469 0 -0.2969094)
(-0.01768407 0 -0.2978352)
(-0.2701822 0 0.1269017)
(-0.2937823 0 0.05608497)
(0.2859972 0 -0.08952608)
(0.2864691 0 0.08935345)
(-0.05245808 0 -0.2954994)
(0.01155248 0 -0.3003788)
(-0.2936373 0 0.07022388)
(-0.01549052 0 -0.3017726)
(-0.0519113 0 -0.2983318)
(0.03888017 0 -0.3018297)
(-0.07144168 0 -0.2975294)
(-0.05122782 0 -0.3018722)
(0.05990392 0 -0.3004385)
(-0.01274858 0 -0.3066944)
(-0.07108693 0 -0.3003921)
(-0.05037346 0 -0.3062977)
(-0.2698257 0 0.1554246)
(-0.07064349 0 -0.3039705)
(-0.09284347 0 -0.2998776)
(-0.04930552 0 -0.3118295)
(-0.07008919 0 -0.3084435)
(-0.09253286 0 -0.3027454)
(0.1042513 0 -0.2989542)
(-0.3169261 0 0.01281279)
(-0.3168992 0 0.01569728)
(-0.3168657 0 0.01930289)
(-0.3168237 0 0.02380991)
(0.01525909 0 -0.317608)
(-0.3167712 0 0.02944368)
(-0.01374244 0 -0.3181745)
(0.03776388 0 -0.3164316)
(-0.3166497 0 0.04221768)
(-0.09214458 0 -0.3063302)
(0.2854281 0 -0.1474905)
(0.05957917 0 -0.3158502)
(-0.3165103 0 0.0562963)
(-0.06939632 0 -0.3140348)
(0.01313892 0 0.3215339)
(-0.1772198 0 0.2689514)
(-0.1153327 0 -0.3022672)
(-0.09165924 0 -0.3108112)
(-0.3163613 0 0.07043601)
(-0.1150335 0 -0.3051362)
(0.196391 0 0.2614749)
(0.194622 0 -0.2652796)
(-0.09105257 0 -0.3164125)
(-0.1146597 0 -0.3087225)
(0.01326802 0 -0.3299282)
(-0.3160392 0 0.09882391)
(-0.01460709 0 -0.3311068)
(0.03678924 0 -0.3299465)
(-0.04297754 0 -0.3298483)
(-0.1141923 0 -0.3132054)
(-0.1377111 0 -0.3045246)
(0.05888942 0 -0.3295967)
(-0.08364228 0 0.3248154)
(-0.06770653 0 -0.3290933)
(0.1052992 0 0.3195521)
(-0.137421 0 -0.3073946)
(-0.1136081 0 -0.3188091)
(-0.1370584 0 -0.310982)
(-0.3396524 0 0.01302441)
(-0.3396255 0 0.0159089)
(-0.3395919 0 0.01951452)
(-0.3157077 0 0.1272665)
(-0.33955 0 0.02402153)
(-0.3394975 0 0.0296553)
(-0.3393766 0 0.0424296)
(-0.0909163 0 -0.329897)
(-0.2691259 0 0.2125582)
(0.0118575 0 -0.3430583)
(-0.136605 0 -0.3154663)
(-0.3392395 0 0.05650766)
(0.1034043 0 -0.3288949)
(-0.1583297 0 -0.3066045)
(-0.01524023 0 -0.3447397)
(-0.3390991 0 0.07064449)
(-0.04285593 0 -0.3447592)
(-0.1580491 0 -0.3094754)
(-0.1360384 0 -0.3210717)
(-0.1137241 0 -0.3315138)
(-0.1576983 0 -0.3130639)
(-0.06762147 0 -0.3442889)
(0.2852075 0 -0.2057904)
(-0.3153867 0 0.1557257)
(-0.1572598 0 -0.3175496)
(-0.09094062 0 -0.3446105)
(0.01108753 0 -0.3569822)
(-0.01563084 0 -0.3588061)
(-0.1567116 0 -0.3231567)
(-0.1364493 0 -0.3329327)
(0.05766612 0 -0.3570805)
(-0.04282274 0 -0.3593665)
(-0.3623787 0 0.01323604)
(-0.3623518 0 0.01612053)
(-0.3623182 0 0.01972614)
(-0.1895038 0 -0.3095041)
(-0.3622763 0 0.02423316)
(-0.3622238 0 0.02986693)
(-0.113839 0 -0.3454265)
(-0.3621031 0 0.04264174)
(-0.1892409 0 -0.3123764)
(-0.06759882 0 -0.3590405)
(-0.3619665 0 0.05671989)
(-0.1889122 0 -0.3159668)
(-0.361823 0 0.07085689)
(-0.1592241 0 -0.3329639)
(-0.1766892 0 0.325582)
(-0.09096196 0 -0.3591435)
(0.102756 0 -0.3573017)
(-0.1885015 0 -0.3204548)
(-0.1366502 0 -0.3460176)
(0.1959555 0 0.3185418)
(-0.2081724 0 -0.311061)
(-0.3615182 0 0.09923405)
(-0.187988 0 -0.3260648)
(-0.2079198 0 -0.313934)
(-0.1139491 0 -0.3594671)
(0.3766477 0 0.02929946)
(0.3771295 0 -0.03174862)
(-0.207604 0 -0.3175253)
(0.1935543 0 -0.3272507)
(-0.2685472 0 0.2694973)
(-0.1595172 0 -0.3456207)
(-0.2072093 0 -0.3220144)
(-0.3612019 0 0.1276697)
(-0.1367999 0 -0.3595669)
(-0.3851049 0 0.01344766)
(-0.3850781 0 0.01633215)
(0.009894919 0 -0.3854133)
(-0.3850445 0 0.01993776)
(-0.3850025 0 0.02444478)
(-0.3849501 0 0.03007855)
(0.3764039 0 0.08784274)
(-0.3848298 0 0.0428523)
(-0.206716 0 -0.3276257)
(0.376632 0 -0.0909789)
(-0.2294261 0 -0.312728)
(-0.3846946 0 0.05692877)
(-0.1825559 0 -0.3436946)
(0.05678022 0 -0.3852065)
(0.2850088 0 -0.2658848)
(-0.229179 0 -0.3156013)
(-0.04250589 0 -0.3880417)
(-0.3845569 0 0.0710633)
(-0.2288702 0 -0.3191928)
(-0.1596924 0 -0.3591943)
(-0.3608759 0 0.1561631)
(-0.2284841 0 -0.3236823)
(-0.09085088 0 -0.3878724)
(0.1020361 0 -0.385439)
(-0.2053303 0 -0.3425341)
(-0.2280015 0 -0.3292942)
(-0.1826033 0 -0.3581255)
(-0.2518872 0 -0.3145453)
(0.3761751 0 -0.14892)
(-0.2516391 0 -0.3174182)
(-0.251329 0 -0.3210094)
(-0.4078312 0 0.01365928)
(-0.4078044 0 0.01654377)
(-0.4077708 0 0.02014938)
(-0.4077288 0 0.0246564)
(-0.4076764 0 0.03029017)
(-0.4075562 0 0.04306302)
(-0.2509413 0 -0.3254983)
(-0.1369936 0 -0.3875648)
(-0.4074213 0 0.05713804)
(-0.2279735 0 -0.3428499)
(-0.2054181 0 -0.3573742)
(-0.4072812 0 0.07127013)
(0.008758244 0 -0.4139708)
(-0.2504567 0 -0.3311094)
(-0.360211 0 0.2132589)
(-0.04279769 0 -0.4165942)
(-0.2742777 0 -0.3165726)
(-0.4069881 0 0.09963254)
(-0.2740269 0 -0.3194452)
(-0.2681239 0 0.3260461)
(-0.2737133 0 -0.3230359)
(-0.2281139 0 -0.3575058)
(-0.2506135 0 -0.3440302)
(-0.09105282 0 -0.41648)
(-0.4066866 0 0.1280462)
(-0.2733213 0 -0.3275243)
(0.3767092 0 0.2021813)
(-0.1827665 0 -0.3867742)
(0.3759222 0 -0.2071145)
(-0.2728314 0 -0.3331348)
(-0.4305575 0 0.0138709)
(-0.4305307 0 0.01675539)
(0.1922308 0 -0.3856632)
(-0.4304971 0 0.02036101)
(-0.4304551 0 0.02486802)
(-0.4304027 0 0.03050179)
(-0.4302828 0 0.04327388)
(0.2836316 0 -0.3274425)
(-0.4301488 0 0.05734783)
(-0.2949523 0 -0.3184445)
(0.01199631 0 0.4346324)
(-0.4063871 0 0.1564822)
(-0.4300128 0 0.0714793)
(-0.2947008 0 -0.3213171)
(-0.2507951 0 -0.3581081)
(-0.1372107 0 -0.4159782)
(-0.2943864 0 -0.3249079)
(-0.2732692 0 -0.3451676)
(-0.2939935 0 -0.3293963)
(0.008194466 0 -0.4426089)
(-0.2935023 0 -0.3350069)
(-0.04290093 0 -0.4451)
(-0.2283591 0 -0.3862211)
(-0.3596285 0 0.2701986)
(-0.2735094 0 -0.3584252)
(-0.4532838 0 0.01408252)
(-0.453257 0 0.01696701)
(0.1007185 0 -0.4422877)
(-0.4532234 0 0.02057263)
(-0.4531814 0 0.02507964)
(-0.182966 0 -0.4153656)
(-0.4531289 0 0.03071341)
(-0.09115158 0 -0.4450539)
(-0.2960201 0 -0.3449683)
(-0.4530092 0 0.04348488)
(-0.4528753 0 0.05755767)
(-0.3261901 0 -0.3212728)
(-0.4527374 0 0.07168649)
(-0.3259411 0 -0.3241458)
(0.3755535 0 -0.2669657)
(-0.2737089 0 -0.3720748)
(-0.3256297 0 -0.327737)
(-0.4524516 0 0.1000398)
(-0.2963138 0 -0.3578)
(-0.3252405 0 -0.332226)
(-0.1374413 0 -0.4445314)
(0.4668198 0 0.02771759)
(-0.324754 0 -0.3378373)
(0.4674997 0 -0.03326532)
(-0.4521571 0 0.128447)
(-0.175409 0 0.4379914)
(-0.3447669 0 -0.3229548)
(-0.2738572 0 -0.3859577)
(-0.2285936 0 -0.4148183)
(0.1946504 0 0.4321323)
(-0.3445213 0 -0.3258283)
(0.4664484 0 0.08633721)
(-0.2964944 0 -0.3714582)
(-0.4760101 0 0.01429415)
(0.467206 0 -0.09247517)
(-0.4759832 0 0.01717864)
(-0.4759497 0 0.02078425)
(-0.3442143 0 -0.3294202)
(-0.4759077 0 0.02529127)
(-0.4758552 0 0.03092504)
(-0.4757356 0 0.04369601)
(-0.3192935 0 -0.3557014)
(-0.4518522 0 0.1569089)
(0.2824841 0 -0.3863012)
(-0.4756024 0 0.05776822)
(-0.3438305 0 -0.3339101)
(-0.183181 0 -0.4439785)
(-0.4754675 0 0.07189758)
(0.1913379 0 -0.4429306)
(-0.3433509 0 -0.3395224)
(-0.3591933 0 0.3268262)
(-0.2966376 0 -0.3855122)
(-0.3193256 0 -0.3703599)
(-0.3659823 0 -0.3248757)
(0.4668645 0 -0.1504084)
(-0.3657427 0 -0.32775)
(0.3764027 0 0.3162342)
(-0.3419792 0 -0.3545829)
(-0.3654432 0 -0.3313428)
(-0.3650688 0 -0.3358338)
(-0.2741205 0 -0.414348)
(0.374051 0 -0.3282931)
(-0.4987364 0 0.01450577)
(-0.2288345 0 -0.4434217)
(-0.4987095 0 0.01739026)
(-0.498676 0 0.02099587)
(-0.498634 0 0.02550289)
(-0.4512229 0 0.2139388)
(-0.3646008 0 -0.3414476)
(-0.4985815 0 0.03113666)
(0.007356212 0 -0.4996418)
(-0.3194113 0 -0.3848712)
(-0.498462 0 0.04390724)
(-0.4983288 0 0.05797857)
(-0.4981925 0 0.072105)
(-0.3420571 0 -0.3696771)
(-0.3884273 0 -0.3269079)
(-0.497912 0 0.1004509)
(-0.3645927 0 -0.3550302)
(0.09969294 0 -0.4994824)
(-0.3881958 0 -0.3297826)
(-0.09051144 0 -0.5020628)
(0.4666302 0 -0.2085448)
(-0.3879064 0 -0.3333761)
(-0.4976256 0 0.1288447)
(-0.3875447 0 -0.3378679)
(-0.3421636 0 -0.3843761)
(-0.3870926 0 -0.3434827)
(-0.3647364 0 -0.3698428)
(-0.2743606 0 -0.4429403)
(-0.4973387 0 0.157262)
(-0.5214627 0 0.01471739)
(-0.5214358 0 0.01760188)
(-0.5214022 0 0.02120749)
(-0.5213603 0 0.02571451)
(-0.5213078 0 0.03134828)
(-0.3196419 0 -0.4137084)
(-0.5211884 0 0.04411863)
(-0.5210557 0 0.05818983)
(-0.4506562 0 0.2708098)
(-0.5209216 0 0.07231789)
(-0.3872575 0 -0.3563938)
(-0.4110505 0 -0.3289562)
(-0.4108308 0 -0.3318311)
(-0.3648703 0 -0.3844605)
(-0.4105561 0 -0.3354248)
(-0.4102128 0 -0.3399169)
(-0.1834971 0 -0.5012848)
(0.1904966 0 -0.500313)
(-0.4097836 0 -0.345532)
(-0.3874302 0 -0.3706094)
(0.3729458 0 -0.3871877)
(0.4662163 0 -0.2682525)
(-0.409958 0 -0.3579684)
(-0.544189 0 0.01492901)
(-0.5441621 0 0.0178135)
(-0.5441285 0 0.02141912)
(-0.5440866 0 0.02592613)
(-0.5440341 0 0.0315599)
(-0.4335814 0 -0.3309962)
(-0.5439147 0 0.04433011)
(-0.3198931 0 -0.4424112)
(-0.3875923 0 -0.3848405)
(-0.543782 0 0.05840071)
(-0.4333759 0 -0.3338708)
(0.01008025 0 0.5473268)
(-0.5436467 0 0.07252589)
(-0.4331189 0 -0.337464)
(-0.3651408 0 -0.4133439)
(-0.4327978 0 -0.3419555)
(-0.5433698 0 0.100868)
(-0.4101558 0 -0.3715293)
(-0.4323963 0 -0.3475699)
(-0.450235 0 0.3272856)
(0.00605746 0 -0.5571664)
(0.5570741 0 0.02622303)
(-0.5430867 0 0.1292609)
(0.5578879 0 -0.03467079)
(-0.4326843 0 -0.3592224)
(-0.4103404 0 -0.3853003)
(0.5566016 0 0.08483677)
(-0.4553272 0 -0.3325982)
(-0.542795 0 0.1577055)
(-0.4551356 0 -0.3354721)
(0.5577522 0 -0.09385267)
(-0.09092769 0 -0.5592858)
(-0.3587278 0 0.4392426)
(-0.5669152 0 0.01514063)
(-0.5668884 0 0.01802513)
(-0.5668548 0 0.02163074)
(-0.454896 0 -0.3390645)
(-0.5668128 0 0.02613775)
(-0.5667604 0 0.03177152)
(-0.566641 0 0.04454175)
(-0.5665087 0 0.05861257)
(0.4647162 0 -0.3294202)
(-0.4545965 0 -0.343555)
(-0.274826 0 -0.5003096)
(-0.432922 0 -0.3721045)
(-0.5663752 0 0.07274007)
(-0.4542222 0 -0.3491682)
(-0.3653989 0 -0.4420614)
(-0.1759357 0 0.5498249)
(0.5575233 0 -0.1517856)
(0.1927775 0 0.5457843)
(-0.4331201 0 -0.3855928)
(-0.4554738 0 -0.3590898)
(-0.4106725 0 -0.4133691)
(-0.5421939 0 0.2146963)
(-0.4557621 0 -0.371627)
(-0.1839749 0 -0.5586032)
(-0.5896415 0 0.01535226)
(-0.5896147 0 0.01823675)
(-0.5895811 0 0.02184236)
(-0.5895391 0 0.02634938)
(-0.5894867 0 0.03198315)
(-0.4864061 0 -0.3347373)
(-0.5893674 0 0.04475345)
(0.556699 0 0.1995416)
(-0.4862343 0 -0.3376125)
(-0.589235 0 0.05882396)
(-0.5891006 0 0.07294847)
(-0.4860194 0 -0.3412066)
(0.5573457 0 -0.2098926)
(-0.4857509 0 -0.3456991)
(-0.4559592 0 -0.3850368)
(-0.5888265 0 0.1012876)
(-0.4854153 0 -0.3513148)
(-0.5885481 0 0.1296727)
(-0.4109641 0 -0.4418022)
(-0.4787487 0 -0.3695656)
(0.4636967 0 -0.3883399)
(-0.5041682 0 -0.3354719)
(-0.5416432 0 0.2715393)
(-0.5040058 0 -0.3383493)
(-0.5038027 0 -0.341946)
(-0.5882688 0 0.1580815)
(-0.5035488 0 -0.3464419)
(-0.6123678 0 0.01556388)
(-0.612341 0 0.01844837)
(-0.6123074 0 0.02205398)
(-0.6122654 0 0.026561)
(-0.612213 0 0.03219477)
(-0.4788493 0 -0.3838855)
(-0.6120937 0 0.04496535)
(-0.5032314 0 -0.3520617)
(-0.6119616 0 0.0590364)
(0.005305644 0 -0.6149098)
(-0.4562623 0 -0.4129957)
(-0.6118285 0 0.07316399)
(0.5569603 0 -0.2695036)
(-0.3659145 0 -0.4994544)
(-0.2753132 0 -0.5576454)
(-0.5015299 0 -0.3679893)
(-0.0911108 0 -0.6167823)
(-0.5251888 0 -0.3363413)
(-0.5250363 0 -0.3392206)
(0.3720128 0 -0.502643)
(-0.5248457 0 -0.3428197)
(-0.5246074 0 -0.3473186)
(-0.5016432 0 -0.3828447)
(-0.5243095 0 -0.3529422)
(-0.541219 0 0.3280599)
(-0.456538 0 -0.4414268)
(-0.6350941 0 0.0157755)
(-0.6350673 0 0.01865999)
(-0.6350337 0 0.0222656)
(-0.6349917 0 0.02677262)
(-0.6349392 0 0.03240639)
(-0.63482 0 0.04517729)
(-0.6346879 0 0.05924828)
(-0.6345541 0 0.07337303)
(0.5563892 0 0.3140292)
(-0.5242653 0 -0.3672443)
(-0.6342819 0 0.1017121)
(-0.1842102 0 -0.6161885)
(-0.5476882 0 -0.3372719)
(0.1888149 0 -0.6156355)
(-0.547547 0 -0.3401526)
(-0.5473706 0 -0.3437534)
(0.555531 0 -0.330533)
(-0.6340053 0 0.1301)
(0.6473784 0 0.02500435)
(-0.54715 0 -0.3482545)
(-0.5244033 0 -0.3820935)
(0.648302 0 -0.03581716)
(-0.5018702 0 -0.4120115)
(-0.5468742 0 -0.3538808)
(0.6468096 0 0.08365218)
(-0.6337221 0 0.1585368)
(0.6482962 0 -0.09497327)
(-0.359088 0 0.5507231)
(-0.6578204 0 0.01598712)
(-0.6577935 0 0.01887161)
(-0.65776 0 0.02247723)
(-0.657718 0 0.02698424)
(-0.6576655 0 0.03261801)
(-0.5469891 0 -0.3673044)
(-0.6575463 0 0.04538942)
(-0.6574145 0 0.05946124)
(-0.6572817 0 0.07358952)
(-0.5703612 0 -0.3382096)
(-0.57023 0 -0.3410911)
(0.6481731 0 -0.15291)
(-0.5700661 0 -0.344693)
(-0.3664132 0 -0.5567801)
(-0.5471415 0 -0.3820854)
(-0.5021259 0 -0.4408403)
(-0.5698611 0 -0.3491953)
(-0.6331418 0 0.2155064)
(-0.5696049 0 -0.3548232)
(-0.2757075 0 -0.6152355)
(-0.4570564 0 -0.4987011)
(0.5545822 0 -0.3894078)
(-0.569734 0 -0.3678719)
(-0.6805467 0 0.01619875)
(-0.6805198 0 0.01908324)
(-0.6804863 0 0.02268885)
(-0.6804443 0 0.02719586)
(-0.6803918 0 0.03282963)
(0.6480705 0 -0.2110035)
(-0.6802726 0 0.04560158)
(-0.6801408 0 0.05967354)
(-0.5930664 0 -0.3391487)
(-0.6800073 0 0.07379897)
(-0.5929416 0 -0.3420306)
(-0.547395 0 -0.4114895)
(-0.5927856 0 -0.3456329)
(-0.5698837 0 -0.3823299)
(-0.6797368 0 0.1021385)
(-0.5925906 0 -0.3501359)
(-0.6326083 0 0.2723117)
(-0.5923468 0 -0.3557646)
(-0.6794632 0 0.1305228)
(-0.5408519 0 0.4402076)
(-0.6791887 0 0.158931)
(-0.5924677 0 -0.3686719)
(0.6477495 0 -0.2705474)
(-0.5476588 0 -0.4404925)
(-0.6157551 0 -0.3400871)
(-0.703273 0 0.01641037)
(-0.7032461 0 0.01929486)
(-0.7032125 0 0.02290047)
(-0.7031706 0 0.02740749)
(-0.7031181 0 0.03304126)
(-0.702999 0 0.04581392)
(-0.6156323 0 -0.3429691)
(-0.7028672 0 0.05988705)
(-0.592614 0 -0.3829753)
(-0.6154788 0 -0.3465716)
(-0.7027347 0 0.0740166)
(-0.6152869 0 -0.3510747)
(-0.6150471 0 -0.3567036)
(-0.6322027 0 0.3287021)
(-0.3668201 0 -0.6143828)
(-0.6151703 0 -0.3695335)
(-0.4575649 0 -0.5559585)
(0.3710605 0 -0.618095)
(-0.5479269 0 -0.4693076)
(-0.5928831 0 -0.4117423)
(-0.6384347 0 -0.3410251)
(-0.6383084 0 -0.343907)
(-0.6153174 0 -0.383673)
(-0.7259993 0 0.01662199)
(-0.7259724 0 0.01950648)
(-0.7259388 0 0.02311209)
(-0.7258969 0 0.02761911)
(0.6464208 0 -0.3314731)
(-0.7258444 0 0.03325288)
(-0.6381505 0 -0.3475093)
(-0.7257252 0 0.04602628)
(-0.7255935 0 0.06009977)
(-0.6379531 0 -0.3520121)
(-0.7254604 0 0.07422663)
(0.004507663 0 -0.7307098)
(-0.6377064 0 -0.3576407)
(-0.7251911 0 0.1025689)
(-0.7249185 0 0.130959)
(-0.6378376 0 -0.3703908)
(0.7377548 0 0.02411913)
(-0.5931624 0 -0.440424)
(0.7387598 0 -0.03662663)
(-0.5481617 0 -0.4979796)
(0.7371045 0 0.08276647)
(-0.724641 0 0.1593968)
(-0.6611136 0 -0.3419631)
(-0.6379966 0 -0.3843195)
(0.7388572 0 -0.09575644)
(-0.6609771 0 -0.3448445)
(-0.6608064 0 -0.3484462)
(-0.7487255 0 0.01683361)
(-0.7486987 0 0.0197181)
(-0.6605931 0 -0.3529483)
(-0.7486651 0 0.02332371)
(-0.7486231 0 0.02783073)
(-0.7485707 0 0.0334645)
(0.5540901 0 -0.5050139)
(-0.7484516 0 0.0462371)
(-0.74832 0 0.06031007)
(-0.6603265 0 -0.3585759)
(-0.7481876 0 0.07443938)
(0.6455855 0 -0.3903204)
(-0.1833763 0 -0.7319497)
(0.738826 0 -0.1536978)
(0.1878132 0 -0.7314836)
(-0.7240754 0 0.2163667)
(-0.5934341 0 -0.4690666)
(-0.660476 0 -0.3712004)
(-0.6383082 0 -0.4122313)
(0.7369239 0 0.1977985)
(-0.6606476 0 -0.3849734)
(-0.683699 0 -0.3430001)
(-0.4579944 0 -0.613481)
(-0.6835534 0 -0.3458809)
(-0.6833716 0 -0.349482)
(0.7387993 0 -0.2117852)
(-0.6831442 0 -0.3539833)
(-0.7714518 0 0.01704523)
(-0.771425 0 0.01992972)
(-0.7713914 0 0.02353534)
(-0.68286 0 -0.35961)
(-0.7713494 0 0.02804235)
(-0.771297 0 0.03367612)
(-0.7711779 0 0.04644794)
(-0.5412158 0 0.5514884)
(-0.7235533 0 0.273177)
(-0.7710463 0 0.06051959)
(-0.7709135 0 0.07464427)
(-0.5936933 0 -0.4976618)
(-0.6386106 0 -0.4404424)
(0.5544537 0 0.5430319)
(-0.7706453 0 0.1029812)
(-0.6831386 0 -0.3717456)
(-0.548655 0 -0.5552113)
(-0.7703748 0 0.1313619)
(-0.6833469 0 -0.3850081)
(-0.7055462 0 -0.3444653)
(-0.7054122 0 -0.3473464)
(-0.7701036 0 0.1597664)
(0.7385522 0 -0.2712767)
(-0.7052447 0 -0.3509478)
(-0.7050354 0 -0.3554496)
(-0.683534 0 -0.398505)
(-0.7047736 0 -0.3610768)
(-0.6388933 0 -0.4688629)
(-0.1790059 0 0.7734706)
(-0.7941781 0 0.01725686)
(-0.7941513 0 0.02014135)
(-0.7941177 0 0.02374696)
(-0.7940757 0 0.02825398)
(-0.7231472 0 0.3296347)
(-0.7940233 0 0.03388775)
(-0.7939042 0 0.04665899)
(0.1879224 0 0.773329)
(-0.7937727 0 0.06073035)
(-0.7936405 0 0.07485795)
(-0.705946 0 -0.3713652)
(-0.6837164 0 -0.4121567)
(0.7365803 0 0.3126603)
(-0.7061962 0 -0.3842573)
(0.7373284 0 -0.3321099)
(-0.6391646 0 -0.4973717)
(-0.7063748 0 -0.3978271)
(-0.6840635 0 -0.4401774)
(-0.7365463 0 -0.3465443)
(-0.7364593 0 -0.3494261)
(-0.7363505 0 -0.3530283)
(-0.8169044 0 0.01746848)
(-0.8168776 0 0.02035297)
(-0.816844 0 0.02395858)
(-0.816802 0 0.0284656)
(-0.8167495 0 0.03409937)
(-0.3670675 0 -0.7304574)
(-0.7065376 0 -0.4117553)
(-0.8166305 0 0.04687006)
(-0.7362146 0 -0.357531)
(-0.816499 0 0.06094031)
(-0.8163665 0 0.07506351)
(-0.7360447 0 -0.3631595)
(-0.8160991 0 0.1033973)
(-0.549081 0 -0.6127224)
(-0.7292696 0 -0.3819327)
(-0.8158294 0 0.1317774)
(0.8282112 0 0.02360333)
(-0.6843567 0 -0.4685267)
(0.8292752 0 -0.03708407)
(-0.7293495 0 -0.396471)
(-0.7541991 0 -0.3470463)
(-0.8155562 0 0.1602032)
(-0.7541244 0 -0.3499271)
(0.5535449 0 -0.6203506)
(0.8275121 0 0.08226118)
(-0.754031 0 -0.353528)
(0.7365672 0 -0.3909216)
(-0.7539144 0 -0.3580291)
(0.8294487 0 -0.09619209)
(-0.7537685 0 -0.3636555)
(-0.7294662 0 -0.4108387)
(-0.8396307 0 0.0176801)
(-0.8396038 0 0.02056459)
(-0.8395703 0 0.0241702)
(-0.8395283 0 0.02867722)
(-0.8394758 0 0.03431099)
(-0.8393568 0 0.04708132)
(-0.8392254 0 0.06115157)
(-0.8390934 0 0.07527798)
(-0.7519947 0 -0.3802484)
(-0.8150019 0 0.2171439)
(0.829488 0 -0.1541386)
(-0.6846474 0 -0.4970145)
(-0.6396998 0 -0.5544931)
(-0.7227991 0 0.4415703)
(0.004048105 0 -0.8475192)
(-0.7753363 0 -0.3469443)
(-0.7521408 0 -0.3952283)
(-0.7752352 0 -0.3498225)
(-0.7297118 0 -0.4394029)
(-0.7751087 0 -0.3534204)
(-0.7749507 0 -0.3579177)
(-0.7747531 0 -0.3635393)
(0.8295233 0 -0.2122236)
(-0.7522665 0 -0.4098752)
(-0.8144913 0 0.2739033)
(-0.7746218 0 -0.3791266)
(-0.862357 0 0.01789172)
(-0.8623301 0 0.02077621)
(-0.8622966 0 0.02438183)
(-0.8622546 0 0.02888884)
(-0.8622021 0 0.03452261)
(-0.8620831 0 0.0472926)
(-0.8619517 0 0.06136198)
(-0.8618195 0 0.07548411)
(-0.7299749 0 -0.4679858)
(-0.8615529 0 0.103815)
(-0.1829122 0 -0.8486004)
(0.1874018 0 -0.8480666)
(-0.774759 0 -0.3943016)
(-0.7978292 0 -0.3483113)
(-0.8612847 0 0.1321889)
(-0.7976856 0 -0.3511873)
(0.82934 0 -0.2716745)
(-0.7975061 0 -0.3547823)
(-0.7972818 0 -0.3592761)
(-0.8610158 0 0.1605861)
(-0.7748825 0 -0.4091773)
(-0.7970013 0 -0.3648933)
(-0.8141006 0 0.330216)
(-0.7971531 0 -0.3789862)
(-0.7302355 0 -0.4965725)
(-0.8850833 0 0.01810334)
(-0.8850564 0 0.02098783)
(-0.8850228 0 0.02459345)
(-0.8849809 0 0.02910046)
(-0.6401501 0 -0.6119324)
(-0.8849284 0 0.03473423)
(-0.8848094 0 0.04750409)
(-0.8846781 0 0.06157376)
(-0.8845462 0 0.07569954)
(-0.7972907 0 -0.3939188)
(-0.7751117 0 -0.4384233)
(-0.820511 0 -0.3498219)
(0.828208 0 -0.3324347)
(-0.8203471 0 -0.3526964)
(0.7363863 0 -0.5064883)
(-0.8201423 0 -0.3562896)
(-0.8198863 0 -0.360781)
(-0.7974279 0 -0.4086577)
(-0.8195663 0 -0.3663952)
(-0.8197289 0 -0.379536)
(-0.7753649 0 -0.467323)
(-0.9078096 0 0.01831497)
(-0.9077827 0 0.02119946)
(-0.9077491 0 0.02480507)
(-0.9077072 0 0.02931209)
(-0.9076547 0 0.03494586)
(-0.9075357 0 0.04771561)
(-0.9074044 0 0.06178468)
(-0.8198884 0 -0.3940877)
(-0.7231662 0 0.5524011)
(-0.9072723 0 0.07590646)
(-0.549505 0 -0.7287996)
(-0.9070063 0 0.1042367)
(-0.8431584 0 -0.3513303)
(-0.8430076 0 -0.3542046)
(0.8275423 0 -0.3912134)
(-0.842819 0 -0.3577974)
(-0.8200389 0 -0.4087088)
(-0.9067387 0 0.1326127)
(-0.7307549 0 -0.5537527)
(-0.8425832 0 -0.3622885)
(0.9187735 0 0.02337563)
(-0.8422885 0 -0.3679023)
(0.9198641 0 -0.037256)
(-0.9064686 0 0.1610336)
(-0.7756265 0 -0.4960305)
(0.9180369 0 0.0820377)
(-0.3667048 0 -0.8473757)
(-0.8424718 0 -0.3805443)
(0.9200808 0 -0.09634357)
(-0.8203696 0 -0.4379212)
(-0.8426387 0 -0.3946192)
(-0.9305358 0 0.01852659)
(-0.930509 0 0.02141108)
(-0.9304754 0 0.02501669)
(-0.9304334 0 0.02952371)
(-0.930381 0 0.03515748)
(-0.930262 0 0.04792732)
(-0.9059228 0 0.2179631)
(-0.9301308 0 0.06199694)
(0.9201618 0 -0.1542946)
(-0.9299989 0 0.07612265)
(-0.8658517 0 -0.3528418)
(-0.8657342 0 -0.3557149)
(-0.842796 0 -0.4088884)
(-0.8655873 0 -0.3593062)
(0.9177278 0 0.1972811)
(-0.8654036 0 -0.3637954)
(-0.865174 0 -0.3694069)
(-0.820644 0 -0.4668779)
(0.9202347 0 -0.2123788)
(-0.5434418 0 0.7738845)
(-0.8653306 0 -0.3816513)
(-0.9054196 0 0.2747122)
(0.5521 0 0.7729011)
(-0.8654936 0 -0.3952969)
(-0.7312021 0 -0.611193)
(-0.9532621 0 0.01873821)
(-0.9532353 0 0.0216227)
(-0.9532017 0 0.02522831)
(-0.9531597 0 0.02973533)
(-0.9531073 0 0.0353691)
(-0.9529883 0 0.04813905)
(-0.9528571 0 0.06220836)
(-0.9527251 0 0.07633023)
(-0.8885647 0 -0.3537622)
(-0.8884774 0 -0.3566318)
(-0.8656484 0 -0.4093186)
(-0.9524598 0 0.1046602)
(-0.8883682 0 -0.3602189)
(-0.8209275 0 -0.4956527)
(0.920092 0 -0.2717949)
(-0.8882317 0 -0.3647028)
(-0.9521932 0 0.1330327)
(-0.8880611 0 -0.3703076)
(0.7361062 0 -0.6216875)
(-0.9050292 0 0.3310721)
(-0.9519262 0 0.1614286)
(-0.8881942 0 -0.3824127)
(0.9174453 0 0.3123966)
(-0.865952 0 -0.4379647)
(-0.888349 0 -0.3958623)
(-0.9759884 0 0.01894983)
(-0.9759616 0 0.02183432)
(-0.975928 0 0.02543994)
(-0.975886 0 0.02994695)
(-0.9758336 0 0.03558072)
(-0.9757146 0 0.048351)
(0.9190236 0 -0.332488)
(-0.9755834 0 0.06242111)
(-0.9112708 0 -0.3543026)
(-0.8884975 0 -0.4097212)
(-0.9754517 0 0.0765473)
(-0.9111984 0 -0.3571701)
(-0.9111078 0 -0.3607545)
(-0.9109946 0 -0.3652349)
(-0.9108531 0 -0.3708355)
(-0.8662289 0 -0.4667013)
(-0.9109861 0 -0.3829605)
(-0.8215284 0 -0.5529655)
(-0.9111402 0 -0.3963407)
(-0.8665082 0 -0.4953727)