
5490
(
-1.065424e-023
-1.272738e-023
-1.204607e-023
-2.35416e-024
-7.14433e-024
-1.882366e-024
-1.138314e-024
-2.260374e-023
-3.211819e-023
-4.147364e-023
-3.447636e-024
-3.330632e-023
-7.391367e-025
-1.692838e-023
-1.027554e-048
-3.833792e-048
-3.14379e-025
-2.339894e-047
-1.615172e-046
-3.644389e-023
-6.064967e-023
-9.748521e-023
-1.609129e-045
-9.848702e-023
-6.2047e-023
-8.045191e-025
-2.121592e-024
-1.905918e-044
-4.525587e-044
-5.990126e-023
-1.119967e-022
-2.075065e-022
-1.043793e-048
-2.497842e-022
-4.402274e-048
-3.039058e-047
-2.09465e-022
-2.286123e-046
-8.107086e-026
-1.293928e-023
-1.927553e-045
-3.312825e-043
-1.040365e-043
-2.03503e-043
-2.435756e-044
-7.918339e-023
-9.743481e-023
-1.994897e-022
-4.231739e-022
-6.110966e-022
-6.421461e-022
-2.650984e-025
-6.371382e-025
-5.686738e-043
-3.929745e-026
-2.047907e-042
-1.697797e-024
-7.186042e-049
-2.891017e-043
-2.925359e-048
-2.224369e-047
-3.052692e-022
-1.644354e-042
-1.837057e-046
-1.595626e-045
-1.514601e-022
-3.349696e-022
-8.028964e-022
-2.233349e-027
-1.359775e-021
-1.673635e-021
-5.535482e-024
-2.562662e-042
-2.351199e-044
-2.201541e-042
-1.000707e-042
-8.978333e-022
-3.98546e-024
-3.236679e-043
-2.270464e-022
-5.2245e-022
-1.370486e-021
-2.644103e-021
-3.755115e-021
-4.13421e-042
-6.094555e-049
-2.236694e-048
-1.661962e-047
-1.403152e-046
-1.273989e-045
-6.117051e-025
-3.552545e-021
-2.695986e-042
-3.709948e-041
-2.124897e-044
-3.338415e-022
-7.572181e-022
-2.0856e-021
-4.469104e-021
-7.127982e-021
-3.37672e-043
-5.335187e-041
-4.530363e-021
-5.908292e-026
-9.579008e-021
-2.114113e-025
-4.417064e-041
-3.256773e-042
-6.916159e-027
-6.29879e-049
-2.086512e-048
-1.48957e-047
-1.252638e-046
-5.263098e-022
-1.174625e-021
-3.486598e-021
-1.153853e-045
-8.823395e-021
-1.601512e-020
-1.16429e-020
-2.044599e-044
-2.3206e-025
-2.080315e-020
-5.547554e-040
-3.554901e-043
-6.18698e-035
-9.995488e-022
-2.727064e-021
-1.113924e-020
-3.1419e-020
-3.894094e-020
-8.437961e-020
-9.713736e-041
-3.677061e-042
-8.978326e-040
-8.11552e-020
-4.67446e-040
-7.478607e-049
-2.291211e-048
-1.566421e-047
-5.613446e-019
-1.290743e-046
-1.176471e-045
-2.113338e-044
-4.480375e-035
-4.936945e-020
-3.305573e-021
-1.285299e-020
-7.590829e-020
-3.201687e-019
-7.198785e-019
-3.821803e-043
-6.238297e-019
-4.33062e-042
-6.455561e-039
-1.89887e-039
-7.989133e-019
-1.289939e-019
-9.585344e-049
-6.863303e-020
-2.786665e-048
-1.340011e-019
-8.633741e-019
-1.005563e-038
-1.846052e-047
-4.192282e-018
-1.495783e-046
-1.099107e-017
-1.346119e-045
-1.32652e-037
-3.55561e-039
-2.409347e-044
-1.948262e-017
-1.472427e-040
-4.362504e-043
-1.668249e-017
-4.731896e-042
-1.26647e-016
-1.112957e-015
-8.45303e-015
-3.666549e-014
-8.341836e-014
-1.111583e-013
-2.416379e-038
0.0009895083
-1.279621e-048
-3.581025e-048
-2.320642e-047
-1.865551e-046
-1.679841e-045
-1.184022e-037
-6.618575e-014
-3.085001e-039
-3.060535e-044
-7.469151e-015
-5.346184e-014
-4.083324e-013
-2.132711e-012
-6.256189e-012
-5.761651e-043
-7.57712e-012
-6.870557e-042
-3.390187e-012
-1.165676e-026
-3.556179e-027
-1.23726e-014
-8.430416e-014
-6.39384e-013
-3.428118e-012
-1.035903e-011
0.001358849
-1.74887e-048
-4.72174e-048
-3.686962e-038
-2.975663e-047
-2.632287e-040
-2.351872e-046
-2.093519e-045
-1.122419e-011
-3.808645e-044
-9.843469e-039
-7.254457e-043
0.002277476
-8.548398e-042
-1.395043e-018
-6.252971e-015
-3.934426e-014
-2.928221e-013
-2.55587e-033
-1.674049e-012
-4.667871e-012
-6.446508e-039
-3.892584e-012
0.003161426
-2.435183e-048
-6.423811e-048
-3.951409e-047
-3.062749e-046
-2.677636e-045
-3.436188e-038
0.1303623
-4.802834e-044
0.026071
0.0226513
0.01838096
0.02709248
-4.29912e-039
0.08087386
-9.113236e-043
0.235498
-1.125222e-041
-9.954615e-038
0.3777456
0.0441514
-4.438617e-040
0.3929742
0.372186
-3.518161e-033
0.3500943
0.3846649
0.5039346
-3.414504e-048
-8.921114e-048
-5.410039e-047
0.7286777
-4.136595e-046
-3.564276e-045
-6.281181e-044
0.8599645
-1.162565e-042
0.5522465
-1.328591e-041
-1.099981e-038
0.8698266
0.8544777
0.8371362
0.8643892
0.9301923
-1.439832e-039
0.9933369
0.9927547
-4.769708e-048
-1.240335e-047
-7.459862e-047
-5.672937e-046
-1.561256e-037
-4.88695e-045
-8.699385e-044
1
1.000001
-1.418057e-037
-1.649039e-042
1.000001
1
-2.027871e-041
1
-2.694143e-039
0.4710853
-8.228296e-040
-2.557071e-033
0.9999666
0.9458659
-8.432923e-040
-2.073942e-028
0.9999508
-4.907186e-028
1.000001
0.9999945
1.000001
0.9999854
-6.614909e-048
-1.706565e-047
-1.010531e-046
-7.572547e-046
0.9999907
-6.443354e-045
-1.138268e-043
0.9999763
0.999973
-2.298267e-038
-2.160041e-042
3.546538e-017
-5.489303e-033
1
0.9999632
-2.596514e-041
0.9999541
0.999997
0.9999633
1
0.9999894
0.9999736
0.9999533
0.9999979
0.999978
-3.951706e-037
0.9999941
1
0.999981
0.9999865
0.9999987
0.9999984
-9.13582e-048
-2.351812e-047
-1.375423e-046
-1.014513e-045
0.9999667
-8.486467e-045
0.9999815
0.9999785
-1.472792e-043
0.9999943
0.1636725
0.9999921
-2.758413e-042
0.9999835
-3.789516e-040
-6.017125e-039
1
0.9999873
-3.419036e-041
0.9999988
-9.173165e-036
0.9286041
0.9999869
0.9999919
0.9999968
-1.417758e-039
0.9999974
0.999995
0.9999947
0.99999
1
0.9999945
-6.800345e-040
0.9999914
-2.173936e-040
0.9999994
0.9999952
0.9999958
-1.253801e-047
-3.225345e-047
-1.876921e-046
-3.823829e-038
-1.37204e-045
-1.134234e-044
-1.934164e-043
0.9999917
-5.594036e-037
0.9999979
0.9999942
-3.525013e-042
0.9999959
1
0.999999
-4.040968e-041
0.9999989
0.9999995
0.9999962
0.9999941
0.999999
0.9999976
0.6498398
-6.081339e-037
0.9999955
0.9999958
0.9999979
0.9999987
0.9999937
0.9999964
0.9999962
0.999999
-1.717453e-047
-4.339852e-047
-2.514535e-046
1
-1.837881e-045
-1.524609e-044
0.9999955
-2.627808e-043
0.9999995
0.9999995
-4.879224e-042
0.9999979
-5.928081e-041
0.9999973
-1.29941e-039
0.9999995
0.9999961
0.9999962
0.9999978
-8.847168e-036
1
-2.528068e-039
0.9999969
0.9999998
0.9999995
-1.090907e-029
-2.530067e-029
0.9999983
0.9999984
-1.378244e-038
0.999999
0.9999981
-7.203965e-038
0.9999989
-2.405456e-047
-5.701491e-047
0.9999985
-3.224562e-046
-2.33446e-045
-1.922738e-044
-3.211089e-033
-3.307462e-043
0.9999988
-4.719786e-019
1
-6.188575e-042
0.999999
0.9999986
0.9867449
0.9999999
0.9999992
-7.427813e-041
0.9999988
0.999998
-1.294899e-036
0.9999982
0.9999992
0.9999984
0.9999989
0.9999986
0.9999985
1
0.2972546
0.9999998
0.9999985
-3.62073e-047
-7.525563e-047
-4.061623e-046
-2.899757e-045
-2.349971e-044
-3.967176e-043
0.9999982
0.9999982
-7.296094e-042
0.999999
0.9999994
-8.936266e-041
0.9999998
0.9999992
-1.827161e-036
0.9999998
1
-3.808798e-039
0.9999995
-2.459252e-039
0.9999986
0.9999994
0.999999
0.9999993
-1.087342e-037
0.9999989
-4.411013e-033
0.9999984
0.7965809
0.9999996
-6.178777e-047
-1.021765e-046
0.9999978
-5.063677e-046
-3.59321e-045
-2.88376e-044
-4.794904e-043
0.9999991
-8.624545e-042
1
-1.13197e-046
-1.886871e-036
-9.903287e-041
0.9999995
0.9999989
0.9999988
0.9999994
0.9999991
1
0.9999999
1
0.9999998
0.9999994
-3.051576e-038
0.9999991
-1.234803e-046
-1.469544e-046
0.9999997
-6.088984e-046
-4.337808e-045
0.9999992
-3.498292e-044
0.9999997
0.9999997
-5.864872e-043
-1.065153e-041
1
-1.271682e-040
1.000001
0.9993062
0.9999984
1.000002
-5.477709e-039
0.9999995
1.000002
0.9999997
-5.648176e-031
1
-1.66105e-030
-1.596455e-037
-2.59246e-045
1
0.9999984
0.9999996
-2.072251e-042
1.000001
-7.467538e-034
0.9999983
-2.844798e-046
-2.236894e-019
-2.379004e-046
-6.829561e-046
1.000003
-4.860081e-045
-3.925858e-044
-6.639047e-043
0.9999996
-2.937942e-036
0.9999986
-1.228874e-041
1.000002
0.9999997
-1.467869e-040
0.9999995
1
-4.476023e-039
0.999998
0.9999993
1
0.3798665
1.000001
-1.551532e-035
0.9999997
1.000001
1.000001
0.9999997
0.9999997
-7.170908e-046
0.9999998
-4.611352e-046
-7.260616e-046
-5.115769e-045
-4.139486e-036
1
-4.08423e-044
0.9999999
0.9999991
-6.815951e-043
-1.245967e-041
-1.519123e-040
0.9999999
1
-6.681312e-039
1
1
1
0.9999998
0.8799149
1
-2.011839e-037
1
0.9999999
1
1
0.9999999
-3.758705e-036
-1.881778e-045
-1.047698e-045
-7.499039e-046
-5.266955e-045
-4.178631e-044
0.9999997
-6.917268e-043
-1.254672e-041
-4.736251e-038
-1.47365e-040
1
1
1
0.9999999
1
1
0.9999998
0.9999999
1
1
0.9999996
0.9999999
1
-4.997003e-045
-2.60451e-045
-7.296797e-046
-5.157749e-045
-4.100938e-044
1
-6.78398e-043
0.9999999
1
-1.223848e-041
0.9999997
-4.201979e-052
-1.466557e-040
0.9999997
0.9999999
1
-6.410172e-039
1
1.000001
-5.830618e-039
1
-2.948847e-032
-1.916043e-037
-1.540102e-031
1.000001
1
-4.085534e-034
1
-3.664814e-036
1
-5.230426e-020
0.9999999
-5.490094e-044
-1.32589e-044
-6.730072e-045
-6.395743e-046
1.000001
-4.604881e-045
-3.721206e-044
-6.271178e-043
-1.152493e-041
0.9999999
1.000001
0.9999999
1
-1.362579e-040
1.000001
0.9999999
-6.292327e-053
0.4241882
-1.791694e-042
1
1.000001
1
-5.175335e-036
1.000001
0.9999999
-3.497168e-044
-1.758646e-044
-4.757128e-046
-3.518664e-045
-2.913517e-044
1
-5.041008e-043
-5.875796e-034
1.000001
-9.474802e-042
-1.173814e-040
1.000002
0.9241754
1.000002
1
-5.362004e-039
1.000002
-1.683336e-037
0.9999999
1.000001
0.9999999
1
-5.072237e-038
1.000001
1.000001
-3.28506e-036
1.000002
-9.151852e-044
-4.589524e-044
-2.78882e-046
-2.16573e-045
-1.886621e-044
1
-3.477728e-043
1.000002
-7.00778e-042
1
1
-9.060237e-041
0.9999999
0.9999999
0.9999999
1.000001
0.9999999
1
1.000001
0.9999998
1.000002
1.000003
1.000001
1.000002
-4.443744e-039
0.9999999
-2.374759e-043
-1.190126e-043
-9.476998e-047
-7.772706e-046
-7.203809e-045
-1.440529e-043
-3.193424e-042
-4.767135e-041
-1.898816e-036
1.000001
-2.343272e-039
0.9999999
1
0.9999999
1.000001
1.000002
0.9999998
-7.89753e-038
-1.565709e-033
1.000003
1.000001
4.828451e-028
1
1.000003
-6.183694e-035
-1.746953e-036
-3.878752e-020
-2.260939e-058
-6.109268e-043
-3.061428e-043
-9.852683e-048
-7.147045e-047
-5.946576e-046
1.000002
-1.055395e-044
-2.084374e-043
-2.698577e-042
1
1.000001
0.4525015
1.000002
1
1.000001
0.9999999
1.000003
-2.504741e-036
1.000003
0.9999999
0.9999999
0.9999998
1.000002
-1.558202e-042
-7.80832e-043
-1.088442e-047
-7.803857e-047
-6.41312e-046
0.9524155
-1.122643e-044
-2.188796e-043
1
-2.893451e-042
1.000001
1
1.000003
1.000001
-1.330248e-040
1.000004
-3.724205e-038
1.000003
-4.549448e-039
-1.081759e-042
-9.994654e-038
1.000002
0.9999999
1
1
-3.940296e-042
-1.974522e-042
-1.197014e-047
-8.509165e-047
-6.920567e-046
-1.196047e-044
1.000002
-2.300654e-043
1.000001
1.000004
-2.9053e-042
1.000005
1.000003
-2.40508e-039
1
1.000002
0.9999999
0.9999999
0.9999998
1
1
1.000001
1.000001
-9.878537e-042
-4.950233e-042
-1.292042e-047
-9.158298e-047
0.9999998
-7.416332e-046
1.000003
-1.273779e-044
-2.429417e-043
1.000003
-3.131323e-042
1
1.000003
-1.432709e-040
-4.811688e-039
1.000002
-8.498465e-035
1
2.403242e-027
0.9999998
-3.374279e-035
-1.072697e-037
1
1.000001
-1.324516e-020
1.000001
1.000002
-2.455119e-041
-1.230284e-041
1.000003
-1.339875e-047
-9.485369e-047
-7.676588e-046
0.9999999
-1.31931e-044
-2.521019e-043
1.000003
-3.154015e-042
0.9999998
1
0.4707885
1
-1.638219e-037
0.9999999
1.000002
1
-4.97701e-035
1.000001
1
0.9999999
1.000001
1.000002
0.9706623
1.000003
-6.047868e-041
-3.030646e-041
-1.341527e-047
1.000003
-9.434376e-047
-7.595817e-046
-1.299437e-044
-5.463339e-057
-1.288446e-038
-2.474725e-043
-3.190466e-042
0.9999998
1
-4.790391e-040
-1.482357e-040
1.000002
0.9999999
-4.972938e-039
1.000001
1
1.000001
-1.064881e-037
1
1.000002
1.000003
1.000001
1.000003
1
-2.881434e-054
-1.47643e-040
-7.398536e-041
-1.353593e-047
-9.411497e-047
-7.486851e-040
-7.521768e-046
-1.279758e-044
-7.666825e-047
-2.430273e-043
-3.025484e-042
1.000002
1
-1.527863e-037
1.000001
0.9999999
0.9999999
1.000001
1
1
1.000001
1.000002
-3.571287e-040
-1.789607e-040
-1.449298e-047
-9.842834e-047
-7.72849e-046
1
1
-1.294173e-044
1.000003
-2.438725e-043
-3.155164e-042
1.000003
-1.424771e-040
0.9999999
1.000001
-4.687971e-039
-4.745295e-036
1
3.412567e-027
1.000001
1
-1.045329e-037
1.000001
0.9999999
-4.297161e-036
1.000002
0.9999999
1.000003
-3.947485e-021
1.000003
1
-8.557244e-040
-4.288119e-040
-1.791047e-047
-1.181729e-046
-9.039635e-046
-1.461914e-044
-2.635722e-043
-3.109223e-042
1.000001
-1.477425e-037
0.4815822
1
0.9999999
-1.95986e-041
1
1
1.000001
1.000001
1
1.000002
1.000003
1.000003
0.9814793
1
-3.831444e-041
1.000002
-2.030608e-039
-1.017558e-039
-2.603307e-047
-1.684549e-046
-1.274452e-045
-2.046788e-044
-3.703851e-043
-4.627333e-042
1
-1.855124e-040
1
1
1.000001
1
-5.383378e-039
1.000001
1
1.000002
1.000003
-9.616505e-038
1
1.000003
-2.470131e-041
1.000002
0.9999999
-4.770831e-039
-2.39071e-039
-4.228757e-047
-2.667685e-046
1
-1.973831e-045
-3.073436e-044
-5.308541e-043
-5.922374e-042
1.000001
1
1
1
1.000001
1
1.000002
1.000003
1
1.000003
1.000002
1
-1.109509e-038
-5.559857e-039
-7.490573e-047
-4.646144e-046
-3.409386e-045
-5.324227e-044
-9.432614e-043
1.000001
-1.054752e-056
-1.15781e-041
1
-4.471141e-040
1
1.000001
1
1.000003
1
-1.331646e-038
0.9999999
1.000003
-7.395444e-037
1.000003
2.303873e-027
-2.768097e-037
0.9999999
-2.490105e-036
1
1.000002
5.180196e-020
1
1.000001
-2.553394e-038
-1.279531e-038
-1.371684e-046
-8.29463e-046
-5.922436e-045
-8.911403e-044
-3.895e-037
-1.505066e-042
0.4874564
-1.669593e-041
1
1.000001
1
1.000003
-3.707413e-036
1.000004
1.000003
0.9999999
0.987436
-8.337393e-057
1.000001
-1.803343e-040
-6.939325e-044
1.000001
0.9999999
-5.813473e-038
-2.913188e-038
-2.585855e-046
-1.542677e-045
-1.088115e-044
-1.621454e-043
-2.748342e-042
-3.261987e-041
1
1.000001
1
-1.134654e-039
1.000003
0.9999999
1
1.000003
-2.923783e-038
1.000002
1
-2.176501e-040
-4.475631e-037
1.000001
-1.582881e-037
1
1.000001
-1.30913e-037
-6.560178e-038
-4.868953e-046
-2.861713e-045
-1.980791e-044
-2.85711e-043
1
-4.573229e-042
1
1
-4.724283e-041
1.000001
1.000002
1.000002
1.000002
1
1.000001
0.9999999
1.000001
0.9999999
1
-2.915079e-037
-1.460775e-037
-9.183771e-046
-5.367745e-045
1
-3.719036e-044
1
-5.44046e-043
1.000001
-9.050178e-042
-1.047302e-040
1.000001
1.000002
-3.703518e-039
1.000002
-1.031128e-037
-3.201343e-040
1
1.000001
-1.286313e-034
-2.027136e-036
9.765451e-028
1
-6.008155e-037
1.000001
1
-3.50997e-020
3.208661e-059
-4.869336e-054
1
1
-2.843018e-036
1.000001
-6.416974e-037
-3.215608e-037
-1.705169e-045
-9.76901e-045
-6.621276e-044
-9.392607e-043
0.4906687
1.000001
-1.498799e-041
-1.575491e-040
0.9999999
1.000002
1
1.000002
1.000001
1
0.9907672
-1.554294e-039
1.000001
1
1
1
1.000001
1.000001
-1.396149e-036
-6.996239e-037
-3.210363e-045
-1.817471e-044
-1.219203e-043
-1.716935e-042
1.000002
-2.757914e-041
-3.115101e-040
1
1.000002
-1.019527e-038
1
-4.016407e-040
-2.47335e-037
1.000001
1
-3.550623e-036
1.000001
-1.518182e-055
1
0.9999999
1
1.000001
1
1.000002
-2.228377e-037
1.000002
0.9999999
-3.001721e-036
-1.504192e-036
-6.034853e-045
-3.369862e-044
-2.222107e-043
-3.034997e-042
-4.611636e-041
1.000002
-4.53661e-040
1.000001
0.9999999
1
0.9999999
1
1
1.000001
1.000001
1.000002
1.000002
-6.376323e-036
-3.195238e-036
-1.137911e-044
-6.321231e-044
-4.176528e-043
-5.792453e-042
-9.162608e-041
-1.012668e-039
-3.421109e-038
1.000001
1
-9.03135e-037
1
1
0.9999999
1
-1.695461e-035
-3.456132e-034
1.611684e-028
-5.233098e-036
1
-5.463474e-023
1
0.9999999
1
1.000001
1
1.000001
-2.368707e-035
1.000001
0.4926837
-1.337983e-035
-6.704765e-036
-2.120046e-044
-1.154295e-043
-7.466879e-043
-1.004883e-041
-1.524659e-040
-1.528228e-039
1.000001
-7.159984e-036
1
0.9999998
1
-1.428809e-038
0.9928089
1
1
1
1.000001
1.000001
1.000001
1
-2.772878e-035
-1.389516e-035
-4.018631e-044
-2.159827e-043
-1.383141e-042
-1.849396e-041
-2.82962e-040
1
-3.057508e-039
-3.057547e-039
1.000001
-2.472332e-058
-9.632539e-038
-4.370255e-049
-2.21183e-036
1
-3.022298e-037
-2.996593e-035
0.9999999
1
0.9999997
1
0.9999999
1
1.000001
1.000002
1.000001
-5.674776e-035
-2.843686e-035
-7.647515e-044
-4.044343e-043
-2.543733e-042
-3.296613e-041
1.000001
-4.767852e-040
0.9999996
-4.478189e-039
1
1
0.9999999
1
1
1
1.000001
-4.48259e-039
1.000001
0.9999999
1.000001
1
1.000001
-1.146701e-034
-5.746231e-035
-1.470015e-043
-7.702767e-043
-4.841976e-042
-6.358356e-041
-9.569923e-040
-1.012598e-038
-3.274502e-037
1
-8.22061e-036
0.9999998
1
-1.474537e-034
-3.621319e-034
1
1.385629e-031
1
-2.320904e-055
-9.376171e-036
1.000001
1.000001
-1.098638e-023
1.000001
-2.374731e-041
-2.054416e-034
0.9999997
1.000001
0.4939933
-2.28755e-034
-1.146314e-034
-2.818162e-043
-1.440919e-042
-8.842258e-042
-1.122631e-040
-1.613187e-039
-1.53739e-038
1
-1.346067e-037
1
1
0.9941188
1
1
1
1
1.000001
1.000001
1.000001
-2.925438e-055
1
1
1
-5.580222e-039
0.9999999
-4.504453e-034
-2.257225e-034
-5.530317e-043
-2.776824e-042
-1.68184e-041
-2.116019e-040
1
-3.063441e-039
-3.153384e-038
-9.309957e-037
1
1
-2.029637e-035
-2.621292e-034
1
1.000001
1
1.000001
1.000001
1.000001
0.9999999
1
1
0.9999999
-8.754143e-034
-4.386787e-034
-1.096218e-042
-5.380426e-042
-3.186494e-041
-3.866652e-040
-5.26206e-039
-4.670845e-038
1
0.9999999
1
1
1
1
1.000001
1.000001
1.000001
1
1
1.000001
1
-1.678955e-033
-8.413407e-034
-2.207153e-042
-1.064784e-041
-6.264893e-041
-7.656519e-040
-1.080158e-038
1
-1.080417e-037
1
-3.155659e-036
1
-7.499369e-035
1
1.000001
1.000001
-1.275047e-033
-2.00565e-034
1.000001
-8.016019e-032
-3.844973e-035
0.9999999
-2.085467e-024
1.000001
-1.769702e-033
1
0.4948958
-3.177297e-033
-1.592174e-033
-4.46311e-042
-2.08523e-041
-1.19066e-040
-1.396144e-039
-1.862925e-038
1
-5.681155e-035
-1.656769e-037
-1.258221e-036
1
0.9950104
1
0.9999999
1
1
1.000001
1.000001
1
-3.159616e-038
1.000001
1
1
0.9999999
1
-5.932059e-033
-2.972613e-033
-9.24831e-042
-4.212856e-041
-2.361323e-040
-2.728598e-039
-3.656135e-038
-5.481162e-037
-3.516295e-037
-8.8875e-036
0.9999999
-1.83393e-034
1
1
1
0.9999999
1
1
-2.26584e-033
0.9999999
1.000001
1.000001
1.000001
0.9999999
1
0.9999998
1
-1.092529e-032
-5.474769e-033
-1.937585e-041
-8.567725e-041
-4.667359e-040
-5.162934e-039
-6.448823e-038
-5.288278e-037
0.9999998
-4.627877e-038
1
1
1
0.9999997
1
1
-7.27885e-057
0.9999999
-2.022878e-045
0.9999998
0.9999997
-1.98462e-032
-9.945125e-033
-4.118324e-041
-1.778821e-040
-9.561386e-040
-1.056119e-038
-1.358124e-037
-1.253243e-036
-2.941126e-035
0.9999998
-6.56048e-034
1
1
0.9999997
-1.050075e-032
0.9999997
-7.109628e-035
0.9999999
-3.154266e-032
-6.372486e-035
-5.503976e-017
1
1
-1.450879e-032
1
0.9999998
0.495754
-3.966712e-054
-3.555224e-032
-1.781558e-032
-8.781423e-041
-3.666193e-040
-1.905722e-039
-2.006035e-038
-2.413607e-037
-1.945014e-036
-1.122832e-035
0.9999999
0.9958397
1
-2.929917e-037
0.9999996
0.9999999
0.9999997
0.9999997
1
1
1
-5.636082e-038
0.9999996
0.9999998
-6.279768e-032
-3.146853e-032
-1.901456e-040
-7.740888e-040
-3.943437e-039
-4.080195e-038
-4.925219e-037
-4.31274e-036
0.9999996
-8.082404e-035
1
1
1
1
1
-1.564396e-033
1
1
1
-1.8549e-032
1
0.9999996
1
1
1
0.9999994
1
-1.093575e-031
-5.48001e-032
-4.126378e-040
-1.634152e-039
-8.087279e-039
-7.989226e-038
1
-8.942886e-037
1
-6.610348e-036
1
1
0.9999998
1
0.9999998
0.9999991
0.9999989
1
1
1
1
1
0.9999997
-1.877254e-031
-9.407101e-032
-8.992868e-040
-3.491512e-039
-1.704344e-038
-1.675642e-037
1
-1.922553e-036
-1.598044e-035
-2.574982e-034
-5.306865e-033
-7.942842e-032
-1.95139e-035
-7.612012e-033
-4.618792e-035
0.9999995
-6.944327e-026
1
-1.090383e-031
0.9999993
0.4961979
0.9999999
-6.937292e-035
-3.17611e-031
-1.59158e-031
-1.94783e-039
1
-7.365796e-039
-3.491343e-038
-3.276677e-037
1
-3.503785e-036
0.9999999
-2.508738e-035
-9.239934e-035
1
1.000001
0.9963134
1.000001
1
1
0.9999999
-5.990165e-054
-2.266722e-037
1
0.9999998
-5.269488e-037
-4.248048e-041
0.9999999
0.9999999
1
-5.29528e-031
-2.653516e-031
-4.223863e-039
-1.569561e-038
-7.325106e-038
-6.788543e-037
1
-7.319619e-036
-5.742555e-035
1
1
1.000001
-6.821647e-034
1
-1.213917e-032
0.9999999
-1.386053e-031
0.9999993
0.9999991
1
-3.29365e-037
1
0.9999996
1
-8.698426e-031
-4.358867e-031
-9.074343e-039
-3.30584e-038
-1.5062e-037
-1.339226e-036
1
-1.344296e-035
-8.925108e-035
1.000001
1
0.9999997
1
0.9999999
0.9999986
0.9999983
1
0.9999999
1
1
1
-1.407639e-030
-7.053816e-031
-1.937276e-038
-6.970068e-038
-3.143609e-037
-2.786568e-036
-2.864111e-035
1
-2.132934e-034
1
-2.057641e-033
1
-3.808352e-032
0.9999998
-5.341425e-031
1
1
0.9999992
6.65541e-036
-8.458066e-054
-1.220397e-033
-2.449414e-035
0.9999989
1.006291e-025
0.9999998
-7.292937e-031
0.4964591
1
0.9999993
1
1
-2.243694e-030
-1.124337e-030
-4.074703e-038
-1.440583e-037
-6.827401e-034
1
-6.35197e-037
-5.41594e-036
-5.218067e-035
-3.352758e-034
1
0.9965602
1
0.9999998
0.9999998
-3.896682e-037
1
0.9999994
0.9999998
0.9999998
1
1
1
1
1
1
-3.521875e-030
-1.764846e-030
-8.494181e-038
-2.97234e-037
-1.297556e-036
-1.099501e-035
1
-1.074352e-034
-7.591134e-034
-5.240077e-033
1
-8.243766e-032
-9.156303e-031
0.9999995
1
1
0.9999989
1
0.9999994
1
1
1
1.000001
-5.443145e-030
-2.727614e-030
-1.740933e-037
-6.008872e-037
-2.574157e-036
1.000001
-2.108025e-035
-1.936954e-034
-1.177752e-033
1
0.9999997
-1.909298e-055
0.9999994
0.9999989
-3.124227e-043
0.9999997
0.9999999
1
1
1
1.000001
1.000001
-8.28167e-030
-4.150026e-030
-3.524565e-037
-1.206857e-036
-5.133662e-036
-4.199781e-035
1
-3.94361e-034
-2.660876e-033
1
1
-1.482734e-032
-2.338755e-031
0.9999998
-3.075046e-030
0.9999998
-8.366646e-029
0.9999996
1.100138e-019
-5.673057e-031
0.0005647074
-4.172928e-030
0.9999997
1
1
0.4987888
1.000001
1.000001
-2.03004e-031
1.000001
-4.347437e-033
-1.240162e-029
-6.214574e-030
-7.000837e-037
-2.365375e-036
-9.882035e-036
-7.831261e-035
-6.961705e-034
-4.118211e-033
1
0.9982932
0.9999998
0.9999998
0.9999998
0.9999997
-2.430167e-037
1
0.9999998
1
-1.232778e-033
1.000001
1.000001
1.000002
1
1.000002
1
1.000002
-1.827327e-029
-9.156917e-030
-1.373633e-036
-4.601734e-036
-1.907783e-035
-1.506242e-034
0.9999996
-1.358187e-033
-8.762972e-033
-3.599458e-032
1
0.999998
-4.698511e-031
-5.12799e-030
0.9999984
1
-3.068749e-037
0.9999998
1
1.000001
1.000001
1.000002
1.000001
0.9999976
1
-2.648607e-029
-1.327243e-029
-2.648647e-036
-8.750377e-036
-3.567088e-035
-2.734599e-034
-2.342602e-033
-1.33155e-032
0.9999954
0.9999972
0.9999999
1
1
1
1
1
1
-1.091479e-052
0.9999977
-3.77517e-029
-1.891775e-029
-5.056301e-036
-1.651822e-035
-6.680555e-035
-5.105751e-034
-4.441989e-033
-2.751332e-032
0.9999967
-9.344985e-032
0.9999999
-1.160195e-030
-5.412169e-034
0.9999983
-1.432274e-029
-1.076362e-028
2.174906e-025
-1.003704e-030
0.004412915
-1.93142e-029
0.9999998
1
0.9999999
0.9999993
0.9999992
0.5050189
0.9999992
-2.256249e-032
0.9999999
0.9999992
0.9999999
-5.289267e-029
-2.650504e-029
-9.53139e-036
-3.054435e-035
-1.212754e-034
-8.997872e-034
0.9998907
-7.467088e-033
-4.133173e-032
0.9999995
0.9999997
0.9999998
-1.44871e-037
1
1
1
0.9999999
0.9999995
0.9999993
0.9999992
1
0.9999994
-7.281244e-029
-3.648703e-029
-1.794533e-035
-5.64044e-035
-2.21312e-034
-1.627785e-033
-1.360383e-032
-8.085264e-032
0.9999999
-2.130364e-031
-2.100418e-030
0.9999998
-2.284515e-029
1
1
1
0.9999998
1
1
0.9999999
0.9999997
0.9999994
1
0.9999998
0.9999996
0.9999999
1
-9.843475e-029
-4.932663e-029
-3.380026e-035
-1.031827e-034
-3.959618e-034
-2.818229e-033
-2.243335e-032
0.9999999
-1.192625e-031
0.9999996
0.9999998
1
0.9999998
0.9999994
-1.433972e-052
0.9999989
0.9999988
0.9999994
0.9999998
-1.869114e-037
-1.30608e-028
-6.544898e-029
-6.453642e-035
-1.908318e-034
-7.19243e-034
-5.04166e-033
0.9999997
-4.018797e-032
-2.282465e-031
-5.020015e-031
0.9999995
-4.242274e-030
-4.943382e-029
-2.057132e-028
1.95056e-018
0.9999997
-2.118349e-030
1
0.9999999
1
-6.618968e-029
0.008784543
0.9999996
0.9999993
0.9999992
1
0.9999999
0.5127063
0.9999997
-3.576472e-031
-8.646174e-032
0.9999993
1
-1.699685e-028
-8.517294e-029
-1.253169e-034
-3.553239e-034
-1.300117e-033
-8.748296e-033
-6.602516e-032
-3.347032e-031
0.9999995
1
0.9999997
1
-5.836812e-037
0.9999999
1
0.9999997
0.9999993
0.9999991
1
-2.16237e-033
1
1
1
0.9999991
-2.167702e-028
-1.086258e-028
-2.500486e-034
-6.796281e-034
-2.421506e-033
-1.586351e-032
-1.184966e-031
-6.360388e-031
-1.117301e-030
0.9999982
-6.590252e-030
1
-7.285583e-029
-2.574325e-037
0.9999995
1
0.9999999
0.9999965
0.9999952
0.9999984
0.9999997
0.9999999
0.9999984
-2.707032e-028
-1.356522e-028
-5.116487e-034
-1.328893e-033
-4.571449e-033
-2.849843e-032
-1.991959e-031
0.9999996
-9.372873e-031
1
1
1.000001
0.9999993
0.999999
-4.144388e-052
1.000001
0.9999993
0.9999997
0.9999969
-3.307053e-028
-1.657201e-028
-1.073547e-033
-2.682977e-033
-8.964856e-033
-5.411768e-032
-3.723894e-031
-1.858893e-030
0.9999972
-2.704862e-030
-9.615877e-030
-1.084444e-028
0.9999995
1
-3.290851e-028
1.000001
-1.008636e-020
-4.437222e-054
1.000003
-2.696253e-030
1.000004
-1.447647e-028
0.9999998
0.01162876
1.000003
0.9999998
0.9999979
-2.041924e-042
0.515922
0.9999945
-2.060286e-031
1
1
0.9999996
-3.948019e-028
-1.9784e-028
-2.286556e-033
-5.518894e-033
-1.783659e-032
-1.023342e-031
-6.543574e-031
-2.811553e-030
-2.476113e-036
1
1.000001
1.000003
1.000005
1.000007
1.000004
0.9999985
1
0.9999961
-4.600422e-028
-2.305335e-028
-4.912906e-033
-1.156411e-032
-3.647276e-032
-2.03373e-031
0.9999979
-1.28424e-030
-5.905205e-030
-7.413826e-030
1
-1.185011e-029
1.000001
1.000004
-1.354858e-028
0.9999999
1.00001
0.9999996
1.00001
1
1.000004
0.9999997
0.9999991
1
0.9999989
0.9999996
-5.225869e-028
-2.618775e-028
-1.053703e-032
-2.427795e-032
-7.453584e-032
-3.975008e-031
1
-2.338792e-030
-9.192432e-030
1.000003
1.000006
1.000005
0.9999978
0.9999998
0.9999949
1
0.9999988
1
0.999999
-5.779431e-028
-2.896217e-028
-2.245238e-032
-5.10011e-032
-1.536665e-031
-8.019211e-031
-4.694599e-030
1
-1.992987e-029
-2.29623e-029
-1.020096e-029
1
0.9999996
-1.101665e-028
0.9999998
1
1
-2.100134e-028
0.9999991
1.48642e-018
1
1
0.9999972
-1.303122e-030
0.9999933
-1.470442e-028
0.9999948
0.0128181
0.9999997
0.9999937
0.9999965
0.5181529
0.999999
-2.195155e-031
-1.889948e-031
0.9999997
1
-6.213634e-028
-3.113896e-028
-4.718374e-032
-1.057434e-031
-3.115221e-031
-1.56422e-030
-8.593264e-030
-3.146138e-029
-9.986581e-036
1
1
0.9999994
0.9999984
0.9999948
0.9999946
-1.093582e-033
0.9999989
1
0.9999998
0.9999993
0.9999989
-6.484331e-028
-3.249741e-028
-9.762745e-032
-2.167316e-031
-6.282177e-031
-3.095887e-030
-1.695728e-029
1
-6.680868e-029
-1.334743e-036
-7.393157e-029
-9.867889e-030
0.9999995
1
0.9999997
-7.766322e-029
0.9999991
0.9999983
0.999998
0.9999985
0.9999997
0.9999978
0.9999972
0.9999998
-6.557624e-028
-3.286859e-028
-1.980248e-031
-4.348161e-031
-1.234216e-030
-5.868143e-030
-3.034069e-029
-1.047057e-028
1
1
0.9999999
0.9999995
1
-5.346855e-051
0.9999992
1
0.9999993
0.9999999
0.9999973
0.9999912
-5.962895e-034
0.9999909
0.9999987
-6.415979e-028
-3.216638e-028
-3.938912e-031
-8.572775e-031
-2.393973e-030
-1.116032e-029
-5.732118e-029
-2.098256e-028
-2.25367e-028
0.9999999
0.9999995
-1.388359e-029
1
1
0.9999995
-6.850207e-029
0.9999993
0.9999998
1
-1.834661e-026
-1.751348e-023
0.9999957
-2.333558e-029
-8.743293e-029
1
0.9999904
0.01036096
1
0.999992
0.5156843
-1.563986e-031
1
-6.062862e-028
-3.04113e-028
-7.660528e-031
-1.648249e-030
-4.506736e-030
-2.028169e-029
-9.873518e-029
-3.216764e-028
-3.848345e-035
1
1
0.9999999
0.9999995
0.9999995
0.9999998
0.9999976
0.999997
1
0.9999988
0.9999999
0.9999992
1
-5.524382e-028
-2.773982e-028
-1.458702e-030
-3.105224e-030
-8.342463e-030
-3.671109e-029
-1.764248e-028
-5.981124e-028
-6.227326e-028
1
0.9999997
1
-2.559298e-029
1.000001
1.000001
-5.685168e-029
1
0.9999999
-3.14697e-051
0.9999999
0.9999997
0.9999998
-2.01868e-037
-4.846268e-028
-2.439072e-028
-2.714021e-030
-5.696693e-030
-1.496986e-029
-6.355418e-029
-2.902353e-028
-8.889109e-028
1
1.000001
1.000002
1.000002
1
1
0.9999976
0.9999976
0.9999985
1
0.9999998
1
1
1
-4.086036e-028
-2.066868e-028
-4.943015e-030
-1.022435e-029
-2.633942e-029
1.000001
1
-1.088922e-028
-4.863698e-028
1
-1.503622e-027
0.9999999
-1.502232e-027
1
0.9999972
-5.357759e-029
-8.688902e-029
1
0.9999898
-2.157891e-026
-2.039955e-023
-4.217477e-029
-9.954758e-029
0.9999912
0.007155492
0.9999969
0.5124244
1
-2.727603e-031
1
-6.050356e-032
0.9999999
1
0.9999988
1
0.9999985
0.9999966
-3.298358e-028
-1.687487e-028
-8.800768e-030
-1.785928e-029
-4.489407e-029
-1.786347e-028
-7.581132e-028
-2.140318e-027
-1.309227e-034
1
0.9999902
-2.364765e-034
0.9999908
1
0.9999969
0.9999995
1
-1.090945e-036
-2.522669e-028
-1.325191e-028
-1.535683e-029
-3.050152e-029
-7.484244e-029
-2.879612e-028
-1.177473e-027
0.9999996
-3.200411e-027
1
-2.994897e-027
0.9999997
0.9999994
-9.947237e-029
0.9999985
-1.139201e-028
0.9999984
0.999999
0.9999975
-8.961566e-053
0.9999967
0.9999979
0.9999997
-1.961868e-042
1
1
1
-1.754839e-028
-9.851693e-029
-2.626283e-029
-5.07731e-029
-1.209874e-028
-4.457585e-028
-4.770837e-050
-1.726328e-027
0.9999998
-4.284468e-027
0.9999994
0.9999987
0.9999999
0.9999976
1
0.9999977
0.9999987
0.9999986
0.9999983
0.9999988
0.9999999
1
0.9999998
0.9999994
-9.627362e-029
0.9999991
-6.630577e-029
-4.416499e-029
-8.281537e-029
-1.912776e-028
-6.7513e-028
0.9999992
-2.494866e-027
-6.012617e-027
0.9999978
-5.245785e-027
1
-1.609982e-028
1
-1.452476e-028
0.9999918
0.9999907
-2.389652e-026
1
-4.354914e-021
-9.05905e-029
-1.541036e-028
0.005010367
0.5102445
1
-4.072316e-031
0.9999998
0.9999995
0.999999
1
0.9999985
-1.761851e-030
-3.127419e-029
-7.309724e-029
-1.322871e-028
-2.944782e-028
-9.877365e-028
-3.451531e-027
-3.148459e-034
-7.749831e-027
1
0.9999876
0.9999999
0.9999831
1
0.9999971
0.9999989
1
0.9999992
1.014057e-027
4.577199e-028
-1.19425e-028
-2.081091e-028
-4.447948e-028
1
-1.4137e-027
-4.699089e-027
0.9999999
-1.044153e-026
0.9999996
-8.666439e-027
0.9999989
0.9999986
-2.16266e-028
0.999999
0.9999925
-1.69297e-028
0.9999903
0.9999996
1
0.9999999
0.9999995
1.061229e-026
5.235476e-027
-1.926396e-028
-3.227393e-028
-6.583885e-028
0.9999991
-1.961719e-027
-6.104921e-027
-1.29819e-026
0.9999997
0.9999987
1
0.999998
0.9999983
0.9999983
0.9999981
0.9999997
0.9999996
1
0.9999998
0.9999997
0.9999994
0.9999991
6.459061e-026
3.223447e-026
-3.068193e-028
-4.952151e-028
-9.60644e-028
-2.656093e-027
-7.512636e-027
-1.398148e-026
0.9999987
-1.010799e-026
0.9999948
-1.68745e-028
0.9999924
-1.171126e-028
0.9999953
1
-2.944886e-026
4.132027e-019
-9.129228e-029
-1.016151e-028
1
0.004334038
0.5095106