
10549
(
(-9.757573 0 -1.846153)
(-9.878786 0 -1.923077)
(-9.515145 0 -1.846153)
(-9.393932 0 -1.923077)
(-9.151504 0 -1.846153)
(-9.030291 0 -1.923076)
(-8.787863 0 -1.846153)
(-8.666649 0 -1.923076)
(-8.424221 0 -1.846152)
(-8.303007 0 -1.923076)
(-8.060579 0 -1.846151)
(-7.939364 0 -1.923075)
(-7.696935 0 -1.84615)
(-7.57572 0 -1.923074)
(-7.33329 0 -1.846148)
(-7.212075 0 -1.923073)
(-6.848428 0 -1.846145)
(-6.969643 0 -1.923073)
(-6.484779 0 -1.846141)
(-6.605995 0 -1.923072)
(-6.121128 0 -1.846135)
(-6.242345 0 -1.923069)
(-5.757475 0 -1.846128)
(-5.878693 0 -1.923066)
(-5.39382 0 -1.846118)
(-5.515038 0 -1.923062)
(-5.030162 0 -1.846104)
(-5.151382 0 -1.923056)
(-9.757573 0 -1.692307)
(-9.878786 0 -1.615383)
(-9.393932 0 -1.692306)
(-9.515146 0 -1.615383)
(-9.030291 0 -1.692306)
(-9.151505 0 -1.615383)
(-8.787864 0 -1.615382)
(-8.66665 0 -1.692305)
(-8.424223 0 -1.61538)
(-8.303008 0 -1.692304)
(-8.06058 0 -1.615378)
(-7.939365 0 -1.692302)
(-7.575722 0 -1.615374)
(-7.696936 0 -1.6923)
(-7.212077 0 -1.615369)
(-7.333291 0 -1.692297)
(-6.84843 0 -1.615363)
(-6.969645 0 -1.692292)
(-6.484782 0 -1.615353)
(-6.605997 0 -1.692285)
(-6.121131 0 -1.615339)
(-6.242347 0 -1.692275)
(-5.757478 0 -1.615321)
(-5.878695 0 -1.692261)
(-5.393821 0 -1.615295)
(-5.51504 0 -1.692243)
(-5.030162 0 -1.615262)
(-5.151382 0 -1.692218)
(-9.757573 0 -1.461537)
(-9.878787 0 -1.384614)
(-9.393933 0 -1.461536)
(-9.515146 0 -1.384613)
(-9.030292 0 -1.461535)
(-9.151506 0 -1.384612)
(-8.666651 0 -1.461534)
(-8.787866 0 -1.384611)
(-8.30301 0 -1.461532)
(-8.424224 0 -1.384609)
(-8.060583 0 -1.384606)
(-7.939368 0 -1.461529)
(-7.575725 0 -1.3846)
(-7.696939 0 -1.461526)
(-7.212081 0 -1.384593)
(-7.333294 0 -1.461521)
(-6.848435 0 -1.384583)
(-6.969649 0 -1.461513)
(-6.484786 0 -1.384569)
(-6.606001 0 -1.461501)
(-6.121136 0 -1.384549)
(-6.242351 0 -1.461485)
(-5.757482 0 -1.384521)
(-5.878698 0 -1.461462)
(-5.393825 0 -1.384483)
(-5.515043 0 -1.461432)
(-5.030164 0 -1.384432)
(-5.151384 0 -1.46139)
(-9.757573 0 -1.230767)
(-9.878787 0 -1.153844)
(-9.393934 0 -1.230767)
(-9.515147 0 -1.153844)
(-9.030294 0 -1.230766)
(-9.151507 0 -1.153843)
(-8.666653 0 -1.230764)
(-8.787867 0 -1.153841)
(-8.303012 0 -1.230761)
(-8.424227 0 -1.153839)
(-7.939371 0 -1.230758)
(-8.060586 0 -1.153836)
(-7.575728 0 -1.230752)
(-7.696944 0 -1.153831)
(-7.212086 0 -1.15382)
(-7.333299 0 -1.230747)
(-6.84844 0 -1.153808)
(-6.969654 0 -1.230737)
(-6.484793 0 -1.153791)
(-6.606007 0 -1.230722)
(-6.121143 0 -1.153766)
(-6.242357 0 -1.230701)
(-5.757489 0 -1.153732)
(-5.878705 0 -1.230672)
(-5.393831 0 -1.153684)
(-5.515048 0 -1.230632)
(-5.030168 0 -1.153619)
(-5.151388 0 -1.230577)
(-9.757574 0 -0.9999979)
(-9.878787 0 -0.923075)
(-9.393935 0 -0.9999973)
(-9.515148 0 -0.9230746)
(-9.030295 0 -0.9999963)
(-9.151509 0 -0.9230737)
(-8.666656 0 -0.9999945)
(-8.78787 0 -0.9230722)
(-8.303016 0 -0.9999919)
(-8.42423 0 -0.92307)
(-7.939375 0 -0.9999879)
(-8.06059 0 -0.9230666)
(-7.575733 0 -0.999982)
(-7.696949 0 -0.9230614)
(-7.21209 0 -0.9999733)
(-7.333307 0 -0.9230538)
(-6.848448 0 -0.9230379)
(-6.96966 0 -0.9999654)
(-6.484801 0 -0.9230195)
(-6.606014 0 -0.9999491)
(-6.121152 0 -0.922993)
(-6.242366 0 -0.9999259)
(-5.7575 0 -0.9229553)
(-5.878714 0 -0.9998927)
(-5.393842 0 -0.922902)
(-5.515058 0 -0.9998462)
(-5.030178 0 -0.9228278)
(-5.151396 0 -0.9997818)
(-9.696968 0 -0.692306)
(-9.818181 0 -0.769229)
(-9.939394 0 -0.6923062)
(-9.33333 0 -0.6923055)
(-9.454542 0 -0.7692286)
(-9.575756 0 -0.6923059)
(-8.969692 0 -0.6923046)
(-9.090904 0 -0.7692278)
(-9.212117 0 -0.6923053)
(-8.606053 0 -0.6923031)
(-8.727265 0 -0.7692264)
(-8.848479 0 -0.6923042)
(-8.242414 0 -0.6923008)
(-8.363626 0 -0.7692242)
(-8.48484 0 -0.6923025)
(-7.878775 0 -0.6922972)
(-7.999986 0 -0.7692208)
(-8.121201 0 -0.6922999)
(-7.515134 0 -0.6922918)
(-7.636346 0 -0.7692158)
(-7.757562 0 -0.6922958)
(-7.151493 0 -0.6922837)
(-7.272704 0 -0.7692083)
(-7.393921 0 -0.6922897)
(-6.78785 0 -0.6922716)
(-6.909062 0 -0.7691971)
(-7.030279 0 -0.6922804)
(-6.424206 0 -0.6922537)
(-6.545417 0 -0.7691805)
(-6.666636 0 -0.6922667)
(-6.060559 0 -0.6922273)
(-6.18177 0 -0.7691564)
(-6.302991 0 -0.6922464)
(-5.696908 0 -0.6921888)
(-5.81812 0 -0.7691213)
(-5.939342 0 -0.6922165)
(-5.333251 0 -0.692133)
(-5.454464 0 -0.7690707)
(-5.57569 0 -0.6921728)
(-9.878787 0 -0.5769218)
(-9.939394 0 -0.5384603)
(-9.575756 0 -0.5384601)
(-9.51515 0 -0.5769215)
(-9.212118 0 -0.5384596)
(-9.151512 0 -0.5769209)
(-8.84848 0 -0.5384587)
(-8.787874 0 -0.5769199)
(-8.484842 0 -0.5384572)
(-8.424236 0 -0.5769183)
(-8.121204 0 -0.5384549)
(-8.060597 0 -0.5769158)
(-7.757565 0 -0.5384514)
(-7.696958 0 -0.5769119)
(-7.393925 0 -0.538446)
(-7.333318 0 -0.5769059)
(-7.030284 0 -0.5384378)
(-6.969677 0 -0.5768969)
(-6.666641 0 -0.5768857)
(-6.606036 0 -0.5384231)
(-6.302997 0 -0.5768667)
(-6.242391 0 -0.5384032)
(-5.93935 0 -0.5768383)
(-5.878744 0 -0.5383737)
(-5.575698 0 -0.5767964)
(-5.515093 0 -0.5383298)
(-2.610745 0 -0.5942023)
(-2.580376 0 -0.517269)
(-2.641331 0 -0.5552873)
(-2.702422 0 -0.5354067)
(-2.306168 0 -0.5957524)
(-2.336477 0 -0.576429)
(-1.942133 0 -0.5971908)
(-1.972379 0 -0.5779521)
(-1.578076 0 -0.5991502)
(-1.608387 0 -0.579869)
(-1.244274 0 -0.5821085)
(-1.213974 0 -0.6012913)
(-0.8498027 0 -0.583194)
(-0.8802532 0 -0.6022096)
(-0.5162284 0 -0.6033092)
(-0.4858018 0 -0.5842984)
(-0.1197719 0 -0.6048006)
(-0.1507869 0 -0.5856674)
(-9.969697 0 -0.3461529)
(-9.939394 0 -0.3653837)
(-9.60606 0 -0.3461528)
(-9.575756 0 -0.3653835)
(-9.242422 0 -0.3461525)
(-9.212119 0 -0.3653832)
(-8.878785 0 -0.3461518)
(-8.848482 0 -0.3653825)
(-8.515147 0 -0.3461507)
(-8.484844 0 -0.3653814)
(-8.151509 0 -0.346149)
(-8.121206 0 -0.3653796)
(-7.787871 0 -0.3461464)
(-7.757568 0 -0.3653767)
(-7.424232 0 -0.3461422)
(-7.393929 0 -0.3653723)
(-7.060592 0 -0.3653662)
(-7.030289 0 -0.3461351)
(-6.696952 0 -0.365356)
(-6.666649 0 -0.3461248)
(-6.333309 0 -0.3653406)
(-6.303006 0 -0.346109)
(-5.969665 0 -0.3653171)
(-5.939362 0 -0.3460852)
(-5.606017 0 -0.3652819)
(-5.575714 0 -0.3460493)
(-3.037641 0 -0.357922)
(-3.067972 0 -0.3380956)
(-2.672136 0 -0.3725165)
(-2.656927 0 -0.3344624)
(-2.687437 0 -0.3531922)
(-2.718044 0 -0.3432587)
(-2.328196 0 -0.3686526)
(-2.343501 0 -0.3776581)
(-2.35876 0 -0.368271)
(-1.987002 0 -0.3795035)
(-1.994531 0 -0.3842082)
(-1.622968 0 -0.3848754)
(-1.630483 0 -0.3800557)
(-0.9020346 0 -0.3903349)
(-0.8944143 0 -0.3860788)
(-0.5306136 0 -0.3819402)
(-0.538214 0 -0.3869256)
(-0.1432452 0 -0.3765486)
(-0.1585215 0 -0.3856948)
(-0.1737741 0 -0.3759584)
(-9.939394 0 -0.1153839)
(-9.969697 0 -0.1346146)
(-9.575757 0 -0.1153838)
(-9.60606 0 -0.1346145)
(-9.21212 0 -0.1153834)
(-9.242423 0 -0.1346142)
(-8.848482 0 -0.1153829)
(-8.878785 0 -0.1346137)
(-8.484845 0 -0.1153819)
(-8.515148 0 -0.1346128)
(-8.121207 0 -0.1153804)
(-8.15151 0 -0.1346113)
(-7.757569 0 -0.115378)
(-7.787872 0 -0.1346089)
(-7.393931 0 -0.1153742)
(-7.424234 0 -0.1346052)
(-7.030292 0 -0.1153682)
(-7.060595 0 -0.1345995)
(-6.696955 0 -0.1345905)
(-6.666651 0 -0.115359)
(-6.333313 0 -0.1345767)
(-6.30301 0 -0.1153448)
(-5.96967 0 -0.1345558)
(-5.939367 0 -0.1153234)
(-5.606024 0 -0.1345245)
(-5.575721 0 -0.1152913)
(-3.060143 0 -0.1265313)
(-3.075307 0 -0.116792)
(-9.969697 0 0.1153853)
(-9.909091 0 0.1538468)
(-9.848485 0 0.1153853)
(-9.60606 0 0.1153854)
(-9.545454 0 0.153847)
(-9.484847 0 0.1153855)
(-9.242423 0 0.1153857)
(-9.181816 0 0.1538473)
(-9.12121 0 0.1153858)
(-8.878786 0 0.1153862)
(-8.818179 0 0.1538479)
(-8.757573 0 0.1153865)
(-8.515148 0 0.1153871)
(-8.454542 0 0.1538488)
(-8.393936 0 0.1153875)
(-8.151511 0 0.1153885)
(-8.090904 0 0.1538504)
(-8.030298 0 0.1153891)
(-7.787873 0 0.1153907)
(-7.727266 0 0.1538528)
(-7.66666 0 0.1153917)
(-7.424234 0 0.1153942)
(-7.363628 0 0.1538566)
(-7.303022 0 0.1153958)
(-7.060596 0 0.1153997)
(-6.999989 0 0.1538624)
(-6.939382 0 0.1154021)
(-6.696956 0 0.1154081)
(-6.636349 0 0.1538714)
(-6.575743 0 0.1154118)
(-6.333315 0 0.1154208)
(-6.272709 0 0.1538848)
(-6.212101 0 0.1154263)
(-5.969673 0 0.1154397)
(-5.909067 0 0.1539046)
(-5.848459 0 0.1154478)
(-5.606029 0 0.1154673)
(-5.545423 0 0.1539331)
(-5.484814 0 0.1154789)
(-3.075273 0 0.1124106)
(-3.04504 0 0.1309442)
(-3.015024 0 0.1020048)
(-3.014926 0 0.1209826)
(-2.696524 0 0.1107809)
(-2.711717 0 0.1205523)
(-2.332455 0 0.1083734)
(-2.3476 0 0.1179608)
(-1.968727 0 0.1066623)
(-1.983849 0 0.1162045)
(-1.605069 0 0.1050645)
(-1.620184 0 0.1145934)
(-1.241427 0 0.1034957)
(-1.256539 0 0.1130196)
(-0.892938 0 0.1020083)
(-0.8777446 0 0.1114024)
(-0.5292825 0 0.10048)
(-0.5140817 0 0.1098823)
(-0.1498266 0 0.1088307)
(-0.1651734 0 0.09930282)
(-9.939394 0 0.384616)
(-9.818181 0 0.461539)
(-9.696969 0 0.384616)
(-9.575757 0 0.3846161)
(-9.454544 0 0.4615392)
(-9.333332 0 0.3846163)
(-9.212119 0 0.3846164)
(-9.090907 0 0.4615395)
(-8.969695 0 0.3846167)
(-8.848482 0 0.3846169)
(-8.72727 0 0.4615401)
(-8.606057 0 0.3846174)
(-8.484845 0 0.3846177)
(-8.363632 0 0.461541)
(-8.24242 0 0.3846185)
(-8.121207 0 0.384619)
(-7.999995 0 0.4615424)
(-7.878782 0 0.3846202)
(-7.757569 0 0.3846211)
(-7.636357 0 0.4615446)
(-7.515144 0 0.384623)
(-7.393931 0 0.3846243)
(-7.272719 0 0.461548)
(-7.151506 0 0.3846272)
(-7.030293 0 0.3846292)
(-6.90908 0 0.4615531)
(-6.787867 0 0.3846334)
(-6.666654 0 0.3846366)
(-6.545441 0 0.4615605)
(-6.424228 0 0.3846427)
(-6.303014 0 0.3846473)
(-6.181803 0 0.4615711)
(-6.060588 0 0.384656)
(-5.939374 0 0.3846625)
(-5.818164 0 0.4615856)
(-5.696948 0 0.3846742)
(-5.575734 0 0.3846832)
(-5.454526 0 0.461604)
(-5.333309 0 0.3846977)
(-2.696156 0 0.3668703)
(-2.63542 0 0.4038283)
(-2.574562 0 0.3661328)
(-2.331898 0 0.3643428)
(-2.271229 0 0.4015257)
(-2.210616 0 0.3637106)
(-1.96806 0 0.3622944)
(-1.907396 0 0.3996131)
(-1.846797 0 0.361788)
(-1.604291 0 0.3605672)
(-1.54363 0 0.3979815)
(-1.483044 0 0.3601298)
(-1.240561 0 0.3590225)
(-1.179892 0 0.3965304)
(-1.119317 0 0.3586385)
(-0.8768231 0 0.3576348)
(-0.8161299 0 0.3952525)
(-0.7555583 0 0.3573149)
(-0.5129713 0 0.3564805)
(-0.4521918 0 0.3942435)
(-0.3915851 0 0.35629)
(-0.1474406 0 0.3557652)
(-0.08459658 0 0.3927327)
(-0.02169036 0 0.3538437)
(-9.878788 0 0.6153851)
(-9.757575 0 0.6923081)
(-9.51515 0 0.6153852)
(-9.393938 0 0.6923082)
(-9.151513 0 0.6153854)
(-9.030301 0 0.6923084)
(-8.787876 0 0.6153858)
(-8.666663 0 0.6923089)
(-8.424238 0 0.6153865)
(-8.303026 0 0.6923095)
(-8.060601 0 0.6153875)
(-7.939388 0 0.6923105)
(-7.696963 0 0.6153892)
(-7.57575 0 0.692312)
(-7.333325 0 0.6153916)
(-7.212113 0 0.6923143)
(-6.969687 0 0.6153953)
(-6.848475 0 0.6923177)
(-6.606049 0 0.6154006)
(-6.484837 0 0.6923225)
(-6.242411 0 0.6154079)
(-6.1212 0 0.692329)
(-5.757563 0 0.6154196)
(-5.878776 0 0.6923327)
(-5.393928 0 0.6154308)
(-5.515142 0 0.692341)
(-2.666329 0 0.6263249)
(-2.545167 0 0.7001011)
(-2.42339 0 0.625665)
(-2.302057 0 0.6251046)
(-2.181118 0 0.6991956)
(-2.059481 0 0.624407)
(-1.938208 0 0.6239324)
(-1.81729 0 0.6983682)
(-1.695688 0 0.623341)
(-1.574433 0 0.6229382)
(-1.453516 0 0.6976751)
(-1.331922 0 0.6224407)
(-1.210666 0 0.6220978)
(-1.089738 0 0.6971112)
(-0.9681398 0 0.6216933)
(-0.8468691 0 0.6214173)
(-0.7259141 0 0.6966913)
(-0.6042934 0 0.6211281)
(-0.4829319 0 0.6209458)
(-0.361785 0 0.6964365)
(-0.2396906 0 0.6207479)
(-9.878788 0 0.846154)
(-9.757575 0 0.923077)
(-9.51515 0 0.8461541)
(-9.393938 0 0.9230771)
(-9.151513 0 0.8461542)
(-9.030301 0 0.9230771)
(-8.787876 0 0.8461544)
(-8.666663 0 0.9230773)
(-8.424238 0 0.8461547)
(-8.303026 0 0.9230774)
(-8.060601 0 0.8461552)
(-7.939388 0 0.9230777)
(-7.696963 0 0.8461559)
(-7.575751 0 0.9230782)
(-7.333325 0 0.846157)
(-7.212113 0 0.9230788)
(-6.969688 0 0.8461586)
(-6.848475 0 0.9230798)
(-6.484838 0 0.8461608)
(-6.606051 0 0.9230798)
(-6.121202 0 0.8461638)
(-6.242415 0 0.9230811)
(-5.757568 0 0.8461676)
(-5.87878 0 0.9230828)
(-5.393937 0 0.8461714)
(-5.515148 0 0.9230848)
(-2.484978 0 0.8494282)
(-2.606348 0 0.9247912)
(-2.242475 0 0.924637)
(-2.12103 0 0.8490831)
(-1.878705 0 0.9244462)
(-1.757231 0 0.8487303)
(-1.51495 0 0.9242841)
(-1.393462 0 0.8484401)
(-1.151184 0 0.9241559)
(-1.029682 0 0.848219)
(-0.7873984 0 0.9240631)
(-0.6658654 0 0.8480751)
(-0.3018376 0 0.8480027)
(-0.4235869 0 0.924012)
(-2.033054 0 -0.596839)
(-2.063342 0 -0.577579)
(-2.335913 0 -0.4055276)
(-2.351163 0 -0.3960399)
(-2.00959 0 -0.3981601)
(-2.024708 0 -0.4073477)
(-2.039759 0 -0.3980362)
(-1.669171 0 -0.5985284)
(-1.699465 0 -0.5792249)
(-1.964322 0 -0.3972539)
(-1.979459 0 -0.4070147)
(-1.994543 0 -0.3979462)
(-1.653171 0 -0.3929455)
(-1.645636 0 -0.3979328)
(-1.305068 0 -0.600737)
(-1.335334 0 -0.5815172)
(-1.623005 0 -0.3987823)
(-1.630529 0 -0.3936444)
(-1.281679 0 -0.391892)
(-1.288848 0 -0.3977407)
(-0.9408997 0 -0.5830771)
(-0.9713351 0 -0.6020935)
(-1.260752 0 -0.3979743)
(-1.26874 0 -0.391721)
(-0.917263 0 -0.3992699)
(-0.9248715 0 -0.4039252)
(-0.5768744 0 -0.584027)
(-0.6072925 0 -0.6030263)
(-0.8944912 0 -0.3986392)
(-0.9021164 0 -0.4033204)
(-0.5534345 0 -0.4018097)
(-0.5686317 0 -0.4117721)
(-0.5837524 0 -0.4023434)
(-0.2123066 0 -0.6045581)
(-0.2427403 0 -0.5852927)
(-0.5079322 0 -0.4019286)
(-0.5231345 0 -0.4115537)
(-0.538275 0 -0.4016545)
(-0.1966721 0 -0.4136957)
(-0.2118519 0 -0.4040573)
(0.1616509 0 -0.5444178)
(0.1002725 0 -0.5636937)
(0.03969006 0 -0.5255665)
(0.06895715 0 -0.6022002)
(-0.1509508 0 -0.4141154)
(-0.1661849 0 -0.4044574)
(0.1632904 0 -0.4108874)
(0.1328823 0 -0.4299178)
(-2.37405 0 -0.3678341)
(-2.389314 0 -0.3768325)
(-2.404551 0 -0.3671721)
(-2.017081 0 -0.3844094)
(-2.00957 0 -0.37984)
(-1.653107 0 -0.3793553)
(-1.645581 0 -0.3838375)
(-0.9171849 0 -0.3867334)
(-0.9247882 0 -0.3909872)
(-0.5533479 0 -0.3822613)
(-0.560954 0 -0.3873082)
(-0.1890188 0 -0.3754286)
(-0.2042233 0 -0.3848705)
(-0.2193881 0 -0.3751908)
(0.1343286 0 -0.3441893)
(0.164032 0 -0.3629605)
(0.1336241 0 -0.3825102)
(0.1342459 0 -0.1615017)
(0.164523 0 -0.1812142)
(0.1343114 0 -0.2003282)
(-3.06014 0 0.07461915)
(-3.07528 0 0.08411518)
(-2.764891 0 0.08235405)
(-2.749704 0 0.09193212)
(-2.734447 0 0.08215622)
(-2.719243 0 0.08206678)
(-2.704078 0 0.09158254)
(-2.688853 0 0.0818297)
(-2.400702 0 0.08022285)
(-2.385533 0 0.08964145)
(-2.370389 0 0.08007571)
(-2.355235 0 0.08000799)
(-2.340064 0 0.08942068)
(-2.324924 0 0.07986454)
(-2.037012 0 0.07857955)
(-2.021827 0 0.08796959)
(-2.006707 0 0.07844597)
(-1.991555 0 0.07838065)
(-1.976369 0 0.08776948)
(-1.96125 0 0.07824829)
(-1.673366 0 0.07700418)
(-1.658176 0 0.08638603)
(-1.643062 0 0.07687305)
(-1.627911 0 0.07680814)
(-1.612721 0 0.08618987)
(-1.597607 0 0.07667801)
(-1.309728 0 0.07544341)
(-1.294537 0 0.08482233)
(-1.279425 0 0.07531313)
(-1.264274 0 0.07524836)
(-1.249082 0 0.0846276)
(-1.23397 0 0.07511909)
(-0.9460922 0 0.07388947)
(-0.9308997 0 0.08326836)
(-0.9157891 0 0.07375984)
(-0.9006376 0 0.07369519)
(-0.8854449 0 0.08307475)
(-0.8703345 0 0.07356659)
(-0.5824526 0 0.07234371)
(-0.5672561 0 0.08172696)
(-0.5521481 0 0.07221575)
(-0.5369963 0 0.07215141)
(-0.5217986 0 0.08153648)
(-0.5066913 0 0.07202484)
(-0.2187034 0 0.07088135)
(-0.2034203 0 0.08033356)
(-0.1883278 0 0.07080088)
(0.1345316 0 -0.1037035)
(0.1646505 0 -0.1231567)
(0.1342979 0 -0.1422487)
(-0.1731401 0 0.07075425)
(-0.1577842 0 0.08025653)
(-0.1426754 0 0.07072273)
(0.1360269 0 0.07532653)
(0.1660407 0 0.05568657)
(0.1363519 0 0.03674232)
(-2.377933 0 0.1086119)
(-2.393081 0 0.1182076)
(-2.696085 0 0.3108096)
(-2.665734 0 0.2917155)
(-2.422945 0 0.3086196)
(-2.392672 0 0.2895456)
(-2.029311 0 0.1164116)
(-2.014188 0 0.106868)
(-2.301703 0 0.2889012)
(-2.331977 0 0.3079871)
(-2.059091 0 0.3063434)
(-2.028819 0 0.2873117)
(-1.665641 0 0.1147922)
(-1.650526 0 0.1052631)
(-1.937868 0 0.2868002)
(-1.968138 0 0.3058512)
(-1.695311 0 0.3044893)
(-1.665049 0 0.2854741)
(-1.301994 0 0.1132153)
(-1.286882 0 0.1036916)
(-1.574116 0 0.285021)
(-1.604377 0 0.3040588)
(-1.331588 0 0.3028326)
(-1.301334 0 0.2838182)
(-0.9232002 0 0.1115951)
(-0.9383933 0 0.1022008)
(-1.210409 0 0.2833998)
(-1.240661 0 0.3024383)
(-0.9678768 0 0.3013151)
(-0.937627 0 0.2822932)
(-0.5595433 0 0.1100682)
(-0.5747427 0 0.100667)
(-0.8466965 0 0.2819081)
(-0.8769438 0 0.3009559)
(-0.5737731 0 0.2998666)
(-0.6041699 0 0.2810124)
(-0.2108329 0 0.09934615)
(-0.1955399 0 0.1088323)
(-0.5131887 0 0.2807457)
(-0.4827856 0 0.2995938)
(-0.2399726 0 0.28012)
(-0.2094198 0 0.2990657)
(0.1355205 0 0.1321773)
(0.1656265 0 0.1130364)
(0.1358065 0 0.09422265)
(-0.1480214 0 0.2800279)
(-0.1168952 0 0.2988969)
(0.1336854 0 0.2942432)
(0.1641359 0 0.2750125)
(-2.397297 0 -0.5953234)
(-2.427709 0 -0.5759661)
(-2.702605 0 -0.4008085)
(-2.672007 0 -0.4202366)
(-2.381691 0 -0.4050977)
(-2.396949 0 -0.3954884)
(-2.748662 0 -0.3428965)
(-2.779207 0 -0.3616121)
(-2.809813 0 -0.3420177)
(-3.035208 0 -0.1903912)
(-3.02016 0 -0.1518305)
(-3.047691 0 -0.1681404)
(-3.075313 0 -0.1553813)
(-2.56543 0 -0.3741208)
(-2.580722 0 -0.3643587)
(-2.695255 0 -0.2766079)
(-2.710555 0 -0.2859596)
(-2.725839 0 -0.2760953)
(-2.564956 0 -0.2806861)
(-2.191778 0 -0.3766011)
(-2.199393 0 -0.3814849)
(-1.835403 0 -0.3852766)
(-1.823912 0 -0.3782699)
(-1.46356 0 -0.3910398)
(-1.471141 0 -0.3867731)
(-1.099766 0 -0.3919883)
(-1.107317 0 -0.387542)
(-0.7378134 0 -0.3858843)
(-0.7460103 0 -0.3798331)
(-0.3710614 0 -0.3838927)
(-0.3786548 0 -0.3889302)
(0.003023465 0 -0.374103)
(-0.01478859 0 -0.3845461)
(-0.03240469 0 -0.3759525)
(-2.742136 0 0.1112031)
(-2.757344 0 0.1209719)
(-2.75705 0 0.3110215)
(-2.787666 0 0.2921865)
(-2.017424 0 -0.4731273)
(-2.017348 0 -0.4541705)
(-2.0478 0 -0.4824964)
(-2.078065 0 -0.4633636)
(-2.146335 0 -0.3956651)
(-2.16154 0 -0.4052469)
(-2.176672 0 -0.3955707)
(-2.108523 0 -0.463061)
(-2.138979 0 -0.4818983)
(-2.169303 0 -0.4626589)
(-1.972131 0 -0.4827027)
(-1.987271 0 -0.4921652)
(-1.827791 0 -0.3988212)
(-1.843012 0 -0.4079222)
(-1.858222 0 -0.3985369)
(-1.850813 0 -0.4926435)
(-1.835585 0 -0.4831659)
(-1.653622 0 -0.4937314)
(-1.668749 0 -0.4840477)
(-1.782305 0 -0.403249)
(-1.7823 0 -0.3940827)
(-1.797471 0 -0.4080103)
(-1.812612 0 -0.3988849)
(-1.790083 0 -0.483268)
(-1.805264 0 -0.4927532)
(-1.608132 0 -0.4942316)
(-1.623259 0 -0.4845361)
(-1.463603 0 -0.4037911)
(-1.471184 0 -0.3992897)
(-1.471452 0 -0.4955762)
(-1.486594 0 -0.4860668)
(-1.3047 0 -0.4867137)
(-1.28953 0 -0.4963448)
(-1.448418 0 -0.4037635)
(-1.440818 0 -0.3993321)
(-1.425935 0 -0.486313)
(-1.441124 0 -0.495711)
(-1.243823 0 -0.4968149)
(-1.259029 0 -0.4871425)
(-1.099801 0 -0.4054726)
(-1.107341 0 -0.400706)
(-1.107608 0 -0.4979559)
(-1.122668 0 -0.4885361)
(-0.9252918 0 -0.487972)
(-0.9405022 0 -0.4975569)
(-1.077015 0 -0.4057273)
(-1.084613 0 -0.4010679)
(-1.06206 0 -0.4886594)
(-1.077304 0 -0.4980215)
(-0.8797234 0 -0.4877444)
(-0.8949675 0 -0.4973344)
(-0.7355493 0 -0.4019702)
(-0.7431248 0 -0.3966008)
(-0.743426 0 -0.4976634)
(-0.758518 0 -0.4879895)
(-0.5613643 0 -0.4886671)
(-0.5765719 0 -0.4981953)
(-0.7125948 0 -0.4034956)
(-0.720253 0 -0.398236)
(-0.6978916 0 -0.4979421)
(-0.7130493 0 -0.4883422)
(-0.470191 0 -0.4697454)
(-0.5006068 0 -0.4791924)
(-0.530905 0 -0.4599421)
(-0.5158558 0 -0.498316)
(-0.3711533 0 -0.4031374)
(-0.3863719 0 -0.4128505)
(-0.4014854 0 -0.4035787)
(-0.3790406 0 -0.4700691)
(-0.4094975 0 -0.4891028)
(-0.4398025 0 -0.4699128)
(-0.196779 0 -0.4709393)
(-0.2272323 0 -0.4898701)
(-0.2576177 0 -0.4705749)
(-0.3256911 0 -0.4030119)
(-0.3408862 0 -0.4125795)
(-0.3560113 0 -0.4029063)
(-0.2879719 0 -0.4703911)
(-0.3183945 0 -0.4893827)
(-0.348683 0 -0.4701191)
(-2.534838 0 -0.3650938)
(-2.519498 0 -0.3748373)
(-2.725859 0 -0.2568238)
(-2.718166 0 -0.2617075)
(-2.169004 0 -0.3762154)
(-2.176611 0 -0.3811614)
(-1.800813 0 -0.3761984)
(-1.808726 0 -0.382789)
(-1.448378 0 -0.3911098)
(-1.440552 0 -0.3873549)
(-1.07697 0 -0.3923904)
(-1.084583 0 -0.3880775)
(-0.722479 0 -0.3828458)
(-0.7124941 0 -0.3898282)
(-0.3483702 0 -0.3834394)
(-0.3559496 0 -0.3884054)
(0.1344654 0 -0.2200159)
(0.1648746 0 -0.2405674)
(0.1349524 0 -0.2608255)
(0.02996918 0 -0.160788)
(0.02326206 0 -0.1559482)
(0.02987722 0 -0.2644882)
(0.02290088 0 -0.2587809)
(-2.897645 0 -0.1336863)
(-2.905827 0 -0.1391176)
(-2.903403 0 0.07681274)
(-2.887856 0 0.08802988)
(-2.872412 0 0.07981317)
(-2.58263 0 0.08117186)
(-2.567474 0 0.09063442)
(-2.552295 0 0.0809983)
(-2.537134 0 0.08092373)
(-2.521975 0 0.09036832)
(-2.506807 0 0.08075138)
(-2.218847 0 0.07939291)
(-2.203667 0 0.08879727)
(-2.188539 0 0.07926061)
(-2.173387 0 0.07919459)
(-2.158205 0 0.08859089)
(-2.143079 0 0.07905351)
(-1.855187 0 0.07779712)
(-1.839999 0 0.08718687)
(-1.824883 0 0.07767049)
(-1.809731 0 0.07760544)
(-1.794543 0 0.08698938)
(-1.779427 0 0.07746926)
(-1.491546 0 0.07623104)
(-1.476356 0 0.0856158)
(-1.461243 0 0.07610567)
(-1.446092 0 0.07604084)
(-1.430901 0 0.08542046)
(-1.415789 0 0.07590594)
(-1.12791 0 0.07467399)
(-1.112718 0 0.08405734)
(-1.097607 0 0.07454928)
(-1.082456 0 0.07448457)
(-1.067264 0 0.08386316)
(-1.052153 0 0.07435038)
(-0.7642736 0 0.07312331)
(-0.7490799 0 0.08250824)
(-0.7339701 0 0.07299946)
(-0.7188186 0 0.07293491)
(-0.7036245 0 0.08231558)
(-0.6885151 0 0.07280165)
(-0.4006212 0 0.07159029)
(-0.385414 0 0.08098838)
(-0.3703108 0 0.07147252)
(-0.3551577 0 0.07140931)
(-0.3399436 0 0.08080846)
(-0.3248431 0 0.07128512)
(0.03002812 0 -0.146364)
(0.02332195 0 -0.1415249)
(0.1354153 0 -0.04513512)
(0.1652551 0 -0.06484398)
(0.134742 0 -0.08445492)
(0.02376473 0 -0.04543518)
(0.0306073 0 -0.04051589)
(-0.03087615 0 0.0709138)
(-0.01264142 0 0.07918567)
(0.005656415 0 0.06852989)
(-2.282804 0 -0.3681425)
(-2.297921 0 -0.3776303)
(-2.312993 0 -0.3685649)
(-2.351124 0 -0.3411734)
(-2.358806 0 -0.3363941)
(-2.29031 0 -0.3406739)
(-2.280928 0 -0.3342992)
(-1.918816 0 -0.3816571)
(-1.926326 0 -0.3764385)
(-1.562264 0 -0.3839022)
(-1.554648 0 -0.388153)
(-1.189809 0 -0.388343)
(-1.197425 0 -0.3925245)
(-0.8259232 0 -0.3824927)
(-0.8335345 0 -0.3872475)
(-0.4622119 0 -0.3895645)
(-0.4698343 0 -0.3844458)
(-0.09733756 0 -0.3763694)
(-0.1126335 0 -0.3859205)
(-0.1279972 0 -0.3765626)
(-0.1755129 0 -0.3421766)
(-0.16599 0 -0.3486473)
(-0.09744609 0 -0.3428823)
(-0.1050608 0 -0.3480973)
(-3.120777 0 -0.1263191)
(-3.151077 0 -0.1069458)
(-3.120775 0 -0.0876496)
(-3.120499 0 0.04675723)
(-3.150849 0 0.06560379)
(-3.120616 0 0.08439173)
(-2.930133 0 -0.1404865)
(-2.922654 0 -0.1216286)
(-2.938603 0 -0.1317123)
(-2.954716 0 -0.127419)
(-3.060319 0 -0.02923924)
(-3.075417 0 -0.03905371)
(-2.559907 0 0.1097094)
(-2.575079 0 0.1193779)
(-2.711639 0 0.1780639)
(-2.681234 0 0.1968845)
(-2.650876 0 0.1774525)
(-2.620521 0 0.1771684)
(-2.590127 0 0.1960451)
(-2.559819 0 0.1766568)
(-2.211175 0 0.1172863)
(-2.196042 0 0.1077271)
(-2.347487 0 0.1751236)
(-2.317117 0 0.1940208)
(-2.286838 0 0.1747622)
(-2.256516 0 0.1746032)
(-2.226147 0 0.1935086)
(-2.195874 0 0.1742868)
(-1.84747 0 0.1156115)
(-1.832352 0 0.1060789)
(-1.98367 0 0.1731705)
(-1.953299 0 0.1920456)
(-1.923046 0 0.1728819)
(-1.892738 0 0.1727487)
(-1.862365 0 0.1916307)
(-1.832118 0 0.172486)
(-1.468664 0 0.1139566)
(-1.483855 0 0.1045549)
(-1.619967 0 0.1714777)
(-1.58959 0 0.190334)
(-1.559354 0 0.171211)
(-1.529049 0 0.1710842)
(-1.498669 0 0.1899503)
(-1.468437 0 0.1708388)
(-1.105021 0 0.1123917)
(-1.120213 0 0.1029917)
(-1.256302 0 0.1698702)
(-1.225917 0 0.1887198)
(-1.195692 0 0.1696149)
(-1.165387 0 0.1694912)
(-1.135001 0 0.1883536)
(-1.104777 0 0.1692562)
(-0.7413761 0 0.1108476)
(-0.7565712 0 0.1014449)
(-0.892642 0 0.1683167)
(-0.8622478 0 0.1871736)
(-0.8320289 0 0.1680724)
(-0.8017238 0 0.1679519)
(-0.771325 0 0.1868266)
(-0.741108 0 0.1677296)
(-0.3928862 0 0.09994525)
(-0.3776715 0 0.1093678)
(-0.5289368 0 0.1668439)
(-0.4985076 0 0.185742)
(-0.468297 0 0.1666316)
(-0.4379789 0 0.1665245)
(-0.4075269 0 0.1854616)
(-0.3773145 0 0.1663551)
(-0.003823147 0 0.0971378)
(-0.02169224 0 0.1077996)
(-0.164565 0 0.1659537)
(-0.1333493 0 0.1849907)
(-0.1028101 0 0.1659993)
(-0.07108094 0 0.1659792)
(-0.03768663 0 0.1838025)
(-0.004538659 0 0.1636182)
(-2.290583 0 -0.4623646)
(-2.321 0 -0.4812065)
(-2.35128 0 -0.4620611)
(-2.191845 0 -0.3957059)
(-2.207055 0 -0.4053305)
(-2.222213 0 -0.3958823)
(-2.199634 0 -0.4625518)
(-2.230029 0 -0.4815155)
(-2.260297 0 -0.4624022)
(-1.645747 0 -0.4268055)
(-1.660946 0 -0.4362078)
(-1.676046 0 -0.4263902)
(-1.713931 0 -0.3925265)
(-1.721559 0 -0.3974119)
(-1.691244 0 -0.426276)
(-1.706501 0 -0.4358328)
(-1.721663 0 -0.4261804)
(-1.600377 0 -0.4279602)
(-1.615539 0 -0.43707)
(-1.630647 0 -0.4271909)
(-1.562295 0 -0.3968381)
(-1.554687 0 -0.4015674)
(-1.554763 0 -0.4292022)
(-1.569998 0 -0.4381737)
(-1.585194 0 -0.4284804)
(-1.289314 0 -0.4436911)
(-1.30448 0 -0.4339915)
(-1.281644 0 -0.4238963)
(-1.296842 0 -0.4241019)
(-1.350211 0 -0.3997457)
(-1.357728 0 -0.392831)
(-1.327248 0 -0.4294185)
(-1.34244 0 -0.4391116)
(-1.357551 0 -0.4298373)
(-1.25886 0 -0.4440704)
(-1.266465 0 -0.4390593)
(-1.189983 0 -0.4008827)
(-1.197601 0 -0.4052332)
(-1.190213 0 -0.4323374)
(-1.205473 0 -0.4410975)
(-1.220604 0 -0.4265751)
(-1.220646 0 -0.4359381)
(-0.917444 0 -0.4312886)
(-0.9326525 0 -0.4408841)
(-0.9477668 0 -0.4318229)
(-0.9931644 0 -0.4051658)
(-0.9855331 0 -0.400627)
(-0.9629318 0 -0.432145)
(-0.9781694 0 -0.4415982)
(-0.9933089 0 -0.4325856)
(-0.8718534 0 -0.4304485)
(-0.8871092 0 -0.4401649)
(-0.9022681 0 -0.4309439)
(-0.8260239 0 -0.3959382)
(-0.833635 0 -0.4010044)
(-0.8262254 0 -0.4297231)
(-0.8414804 0 -0.4395521)
(-0.8566212 0 -0.4300941)
(-0.1046391 0 -0.4714624)
(-0.135326 0 -0.490361)
(-0.1663131 0 -0.4711556)
(-0.02407788 0 -0.4133752)
(-0.006566297 0 -0.4028931)
(-0.007396407 0 -0.469539)
(-0.04019806 0 -0.4895225)
(-0.07312507 0 -0.4714931)
(-2.419805 0 -0.3668129)
(-2.43516 0 -0.376019)
(-2.450486 0 -0.366317)
(-2.374088 0 -0.3402932)
(-2.381736 0 -0.3354359)
(-2.450421 0 -0.3329344)
(-2.442702 0 -0.3377906)
(-2.077731 0 -0.3832119)
(-2.085357 0 -0.3782251)
(-1.713888 0 -0.3830614)
(-1.721412 0 -0.3781802)
(-1.350467 0 -0.3859077)
(-1.357672 0 -0.3857939)
(-0.9854849 0 -0.3921055)
(-0.9930789 0 -0.3878481)
(-0.6214899 0 -0.3847168)
(-0.6290738 0 -0.3896837)
(-0.2345124 0 -0.3755116)
(-0.249686 0 -0.3804445)
(-0.2647826 0 -0.3712552)
(-0.2573265 0 -0.3897664)
(-0.1908654 0 -0.3454441)
(-0.1989456 0 -0.3401285)
(-0.2568805 0 -0.3444372)
(-0.2644609 0 -0.3491615)
(0.04308046 0 -0.3732569)
(0.02720454 0 -0.3827814)
(0.1352042 0 -0.2827891)
(0.1650276 0 -0.3033797)
(0.134729 0 -0.3247378)
(0.03011497 0 -0.2819454)
(0.02273879 0 -0.2755398)
(-3.075103 0 -0.009657177)
(-3.059512 0 0.000436436)
(-2.948307 0 0.07232889)
(-2.93337 0 0.08336899)
(-2.918789 0 0.07514414)
(-2.741903 0 0.05340912)
(-2.734274 0 0.04863706)
(-2.810692 0 0.08226226)
(-2.795456 0 0.0920408)
(-2.780133 0 0.08237356)
(-2.810397 0 0.04829954)
(-2.802823 0 0.05324059)
(-2.719116 0 0.05332478)
(-2.711501 0 0.04855134)
(-2.67367 0 0.08173825)
(-2.658515 0 0.09123066)
(-2.643309 0 0.08152453)
(-2.650837 0 0.05299824)
(-2.64325 0 0.04824506)
(-2.370472 0 0.04703615)
(-2.378032 0 0.05176493)
(-2.446173 0 0.08044634)
(-2.431007 0 0.08987125)
(-2.415856 0 0.08029194)
(-2.446219 0 0.05206441)
(-2.438656 0 0.04733178)
(-2.355304 0 0.05166625)
(-2.347744 0 0.0469375)
(-2.309771 0 0.07979794)
(-2.294596 0 0.08920712)
(-2.279461 0 0.0796595)
(-2.28712 0 0.05137196)
(-2.279561 0 0.04664518)
(-2.006832 0 0.04547412)
(-2.014389 0 0.0501981)
(-2.082469 0 0.07878191)
(-2.067285 0 0.08817307)
(-2.052163 0 0.07864549)
(-2.082571 0 0.05049178)
(-2.075014 0 0.04576682)
(-1.991662 0 0.05010071)
(-1.984105 0 0.04537687)
(-1.946098 0 0.07818356)
(-1.930912 0 0.08757244)
(-1.915794 0 0.07805372)
(-1.915924 0 0.04508619)
(-1.92348 0 0.04980978)
(-1.643198 0 0.04391906)
(-1.650754 0 0.04864191)
(-1.718821 0 0.07720278)
(-1.703631 0 0.08658469)
(-1.688517 0 0.07706961)
(-1.718935 0 0.04893471)
(-1.711379 0 0.04421139)
(-1.628027 0 0.04854473)
(-1.620471 0 0.0438221)
(-1.582456 0 0.07661362)
(-1.567266 0 0.08599614)
(-1.552152 0 0.07648548)
(-1.55229 0 0.04353166)
(-1.559845 0 0.0482544)
(-1.279565 0 0.04236547)
(-1.28712 0 0.04708794)
(-1.355183 0 0.07564083)
(-1.339991 0 0.08501941)
(-1.324879 0 0.07550869)
(-1.355302 0 0.04738045)
(-1.347746 0 0.04265769)
(-1.256817 0 0.0469585)
(-1.264413 0 0.04230077)
(-1.218819 0 0.07505484)
(-1.203628 0 0.08443522)
(-1.188516 0 0.07492743)
(-1.196232 0 0.04201055)
(-1.188636 0 0.04666849)
(-0.9235069 0 0.04084518)
(-0.9159111 0 0.04550266)
(-0.9915467 0 0.07408613)
(-0.9763544 0 0.08346434)
(-0.9612436 0 0.07395464)
(-0.9916681 0 0.04582737)
(-0.9841124 0 0.04110472)
(-0.893184 0 0.04540566)
(-0.9007798 0 0.04074793)
(-0.8551831 0 0.07350245)
(-0.83999 0 0.08288355)
(-0.8248798 0 0.07337577)
(-0.8325985 0 0.04045783)
(-0.8250027 0 0.04511585)
(-0.5598731 0 0.0392932)
(-0.5522768 0 0.04395121)
(-0.6279082 0 0.07253888)
(-0.6127128 0 0.08192047)
(-0.5976042 0 0.07240863)
(-0.6204584 0 0.04424304)
(-0.6280545 0 0.03958498)
(-0.5295495 0 0.04385437)
(-0.5371458 0 0.03919612)
(-0.4915394 0 0.07196112)
(-0.4763396 0 0.08134947)
(-0.4612333 0 0.07183737)
(-0.4689642 0 0.03890638)
(-0.4613675 0 0.0435653)
(-0.1962139 0 0.03775521)
(-0.1885975 0 0.04242458)
(-0.264208 0 0.07104344)
(-0.2489617 0 0.08046729)
(-0.2338686 0 0.07093865)
(-0.2644128 0 0.03803897)
(-0.2568112 0 0.04270112)
(-0.1734675 0 0.03766539)
(-0.1658401 0 0.04233911)
(-0.1274209 0 0.07070838)
(-0.1118354 0 0.08029755)
(-0.09662728 0 0.07079193)
(-0.1050062 0 0.03744522)
(-0.09723927 0 0.04218007)
(0.1363812 0 0.0166544)
(0.1661615 0 -0.00425187)
(0.1360098 0 -0.02469054)
(0.02304588 0 0.06726099)
(0.03823257 0 0.0763066)
(0.05406141 0 0.06647931)
(0.02385276 0 -0.03050944)
(0.03085097 0 -0.02522072)
(-2.514398 0 0.1094034)
(-2.529565 0 0.1190598)
(-2.43847 0 0.1757192)
(-2.408096 0 0.1946089)
(-2.377813 0 0.1753042)
(-2.529476 0 0.1764175)
(-2.499093 0 0.1952929)
(-2.468803 0 0.1759297)
(-2.150575 0 0.1075061)
(-2.165706 0 0.1170701)
(-2.074608 0 0.1736285)
(-2.044239 0 0.1925019)
(-2.01398 0 0.1733137)
(-2.165557 0 0.1741312)