
10549
(
3(5486 5398 5425)
3(5425 5488 5486)
3(5425 5398 5292)
3(5292 5320 5425)
3(5320 5292 5186)
3(5186 5214 5320)
3(5214 5186 5080)
3(5080 5108 5214)
3(5108 5080 4987)
3(4987 5002 5108)
3(5002 4987 4890)
3(4890 4896 5002)
3(4896 4890 4787)
3(4787 4790 4896)
3(4790 4787 4682)
3(4682 4690 4790)
3(4682 4576 4596)
3(4596 4690 4682)
3(4576 4470 4490)
3(4490 4596 4576)
3(4470 4364 4384)
3(4384 4490 4470)
3(4364 4258 4278)
3(4278 4384 4364)
3(4258 4168 4177)
3(4177 4278 4258)
3(4168 4064 4090)
3(4090 4177 4168)
3(5396 5398 5486)
3(5486 5484 5396)
3(5290 5292 5398)
3(5398 5396 5290)
3(5184 5186 5292)
3(5292 5290 5184)
3(5186 5184 5078)
3(5078 5080 5186)
3(5080 5078 4972)
3(4972 4987 5080)
3(4987 4972 4866)
3(4866 4890 4987)
3(4866 4760 4787)
3(4787 4890 4866)
3(4760 4654 4682)
3(4682 4787 4760)
3(4654 4548 4576)
3(4576 4682 4654)
3(4548 4446 4470)
3(4470 4576 4548)
3(4446 4354 4364)
3(4364 4470 4446)
3(4354 4253 4258)
3(4258 4364 4354)
3(4253 4149 4168)
3(4168 4258 4253)
3(4149 4044 4064)
3(4064 4168 4149)
3(5376 5396 5484)
3(5484 5482 5376)
3(5274 5290 5396)
3(5396 5376 5274)
3(5171 5184 5290)
3(5290 5274 5171)
3(5070 5078 5184)
3(5184 5171 5070)
3(4968 4972 5078)
3(5078 5070 4968)
3(4972 4968 4864)
3(4864 4866 4972)
3(4864 4758 4760)
3(4760 4866 4864)
3(4758 4652 4654)
3(4654 4760 4758)
3(4652 4546 4548)
3(4548 4654 4652)
3(4546 4440 4446)
3(4446 4548 4546)
3(4440 4334 4354)
3(4354 4446 4440)
3(4334 4228 4253)
3(4253 4354 4334)
3(4228 4122 4149)
3(4149 4253 4228)
3(4122 4016 4044)
3(4044 4149 4122)
3(5374 5376 5482)
3(5482 5480 5374)
3(5268 5274 5376)
3(5376 5374 5268)
3(5162 5171 5274)
3(5274 5268 5162)
3(5056 5070 5171)
3(5171 5162 5056)
3(4950 4968 5070)
3(5070 5056 4950)
3(4844 4864 4968)
3(4968 4950 4844)
3(4738 4758 4864)
3(4864 4844 4738)
3(4738 4632 4652)
3(4652 4758 4738)
3(4632 4526 4546)
3(4546 4652 4632)
3(4526 4420 4440)
3(4440 4546 4526)
3(4420 4320 4334)
3(4334 4440 4420)
3(4320 4221 4228)
3(4228 4334 4320)
3(4221 4119 4122)
3(4122 4228 4221)
3(4119 4014 4016)
3(4016 4122 4119)
3(5369 5374 5480)
3(5480 5476 5369)
3(5263 5268 5374)
3(5374 5369 5263)
3(5157 5162 5268)
3(5268 5263 5157)
3(5052 5056 5162)
3(5162 5157 5052)
3(4946 4950 5056)
3(5056 5052 4946)
3(4840 4844 4950)
3(4950 4946 4840)
3(4734 4738 4844)
3(4844 4840 4734)
3(4628 4632 4738)
3(4738 4734 4628)
3(4628 4522 4526)
3(4526 4632 4628)
3(4522 4416 4420)
3(4420 4526 4522)
3(4416 4310 4320)
3(4320 4420 4416)
3(4310 4204 4221)
3(4221 4320 4310)
3(4204 4098 4119)
3(4119 4221 4204)
3(4098 3992 4014)
3(4014 4119 4098)
3(5423 5364 5369)
3(5369 5476 5423)
3(5476 5472 5423)
3(5317 5258 5263)
3(5263 5369 5317)
3(5369 5364 5317)
3(5212 5153 5157)
3(5157 5263 5212)
3(5263 5258 5212)
3(5106 5047 5052)
3(5052 5157 5106)
3(5157 5153 5106)
3(5000 4941 4946)
3(4946 5052 5000)
3(5052 5047 5000)
3(4894 4835 4840)
3(4840 4946 4894)
3(4946 4941 4894)
3(4786 4729 4734)
3(4734 4840 4786)
3(4840 4835 4786)
3(4680 4623 4628)
3(4628 4734 4680)
3(4734 4729 4680)
3(4574 4517 4522)
3(4522 4628 4574)
3(4628 4623 4574)
3(4468 4411 4416)
3(4416 4522 4468)
3(4522 4517 4468)
3(4362 4306 4310)
3(4310 4416 4362)
3(4416 4411 4362)
3(4256 4200 4204)
3(4256 4204 4310)
3(4310 4306 4256)
3(4148 4094 4098)
3(4148 4098 4204)
3(4204 4200 4148)
3(5421 5423 5472)
3(5472 5468 5421)
3(5364 5361 5315)
3(5315 5317 5364)
3(5258 5255 5209)
3(5209 5212 5258)
3(5153 5149 5103)
3(5103 5106 5153)
3(5047 5043 4997)
3(4997 5000 5047)
3(4941 4937 4889)
3(4889 4894 4941)
3(4835 4831 4783)
3(4783 4786 4835)
3(4729 4725 4677)
3(4677 4680 4729)
3(4623 4620 4572)
3(4572 4574 4623)
3(4468 4517 4514)
3(4514 4466 4468)
3(4362 4411 4408)
3(4408 4360 4362)
3(4256 4306 4302)
3(4302 4252 4256)
3(4148 4200 4196)
3(4196 4146 4148)
3(2963 2981 3171)
3(3058 2954 2963)
3(2963 3171 3058)
3(3171 3150 3058)
3(2662 2669 2774)
3(2774 2762 2662)
3(2265 2288 2386)
3(2386 2369 2265)
3(1890 1916 2012)
3(2012 1985 1890)
3(1642 1613 1514)
3(1514 1549 1642)
3(1257 1160 1209)
3(1209 1286 1257)
3(908 974 927)
3(927 849 908)
3(689 750 774)
3(774 711 689)
3(5466 5464 5435)
3(5435 5439 5466)
3(5353 5349 5329)
3(5329 5333 5353)
3(5247 5243 5223)
3(5223 5227 5247)
3(5141 5137 5117)
3(5117 5121 5141)
3(5036 5031 5011)
3(5011 5016 5036)
3(4930 4925 4905)
3(4905 4910 4930)
3(4825 4819 4800)
3(4800 4805 4825)
3(4720 4715 4694)
3(4694 4698 4720)
3(4592 4615 4610)
3(4610 4588 4592)
3(4486 4509 4504)
3(4504 4482 4486)
3(4380 4403 4398)
3(4398 4376 4380)
3(4274 4297 4293)
3(4293 4271 4274)
3(4166 4191 4187)
3(4187 4163 4166)
3(3396 3399 3440)
3(3440 3437 3396)
3(3029 3032 3129)
3(3074 3027 3029)
3(3029 3129 3074)
3(3129 3124 3074)
3(2690 2666 2667)
3(2667 2722 2690)
3(2722 2720 2690)
3(2324 2299 2303)
3(2303 2325 2324)
3(1907 1912 1937)
3(1937 1928 1907)
3(1140 1159 1157)
3(1157 1138 1140)
3(792 766 779)
3(779 798 792)
3(466 456 488)
3(488 514 466)
3(514 475 466)
3(5453 5431 5432)
3(5432 5454 5453)
3(5343 5325 5326)
3(5326 5344 5343)
3(5237 5219 5220)
3(5220 5238 5237)
3(5131 5113 5114)
3(5114 5132 5131)
3(5025 5007 5008)
3(5008 5026 5025)
3(4919 4901 4902)
3(4902 4920 4919)
3(4813 4795 4796)
3(4796 4814 4813)
3(4707 4687 4688)
3(4688 4708 4707)
3(4601 4581 4582)
3(4582 4602 4601)
3(4476 4496 4495)
3(4495 4475 4476)
3(4370 4390 4389)
3(4389 4369 4370)
3(4263 4284 4283)
3(4283 4262 4263)
3(4156 4176 4175)
3(4175 4155 4156)
3(3409 3410 3419)
3(3419 3418 3409)
3(5430 5450 5456)
3(5430 5456 5405)
3(5405 5402 5430)
3(5324 5342 5345)
3(5324 5345 5299)
3(5299 5296 5324)
3(5218 5236 5239)
3(5218 5239 5193)
3(5193 5190 5218)
3(5112 5130 5133)
3(5112 5133 5086)
3(5086 5083 5112)
3(5006 5024 5027)
3(5006 5027 4979)
3(4979 4976 5006)
3(4900 4918 4921)
3(4900 4921 4873)
3(4873 4870 4900)
3(4794 4812 4815)
3(4794 4815 4767)
3(4767 4764 4794)
3(4686 4706 4709)
3(4686 4709 4661)
3(4661 4658 4686)
3(4580 4600 4603)
3(4580 4603 4555)
3(4555 4552 4580)
3(4474 4494 4497)
3(4474 4497 4448)
3(4448 4444 4474)
3(4368 4388 4391)
3(4368 4391 4341)
3(4341 4338 4368)
3(4261 4282 4285)
3(4261 4285 4235)
3(4235 4232 4261)
3(4154 4174 4178)
3(4154 4178 4129)
3(4129 4126 4154)
3(3408 3417 3420)
3(3420 3379 3408)
3(3378 3377 3408)
3(3408 3379 3378)
3(3053 3051 3090)
3(3090 3092 3053)
3(2641 2639 2683)
3(2683 2685 2641)
3(2235 2232 2278)
3(2278 2279 2235)
3(1837 1835 1882)
3(1882 1883 1837)
3(1437 1435 1480)
3(1480 1483 1437)
3(1024 1071 1074)
3(1074 1025 1024)
3(607 658 665)
3(665 611 607)
3(224 179 166)
3(166 206 224)
3(5408 5462 5470)
3(5408 5470 5363)
3(5363 5348 5408)
3(5302 5348 5363)
3(5302 5363 5257)
3(5257 5242 5302)
3(5196 5242 5257)
3(5196 5257 5151)
3(5151 5136 5196)
3(5089 5136 5151)
3(5089 5151 5045)
3(5045 5030 5089)
3(4982 5030 5045)
3(4982 5045 4939)
3(4939 4924 4982)
3(4876 4924 4939)
3(4876 4939 4833)
3(4833 4818 4876)
3(4770 4818 4833)
3(4770 4833 4727)
3(4727 4712 4770)
3(4664 4712 4727)
3(4664 4727 4621)
3(4621 4606 4664)
3(4558 4606 4621)
3(4558 4621 4515)
3(4515 4501 4558)
3(4453 4501 4515)
3(4453 4515 4409)
3(4409 4397 4453)
3(4347 4397 4409)
3(4347 4409 4303)
3(4303 4291 4347)
3(4241 4291 4303)
3(4241 4303 4197)
3(4197 4184 4241)
3(4135 4184 4197)
3(4135 4197 4089)
3(4089 4078 4135)
3(3014 3110 3132)
3(3132 2928 3014)
3(2928 2909 3014)
3(2611 2703 2725)
3(2725 2527 2611)
3(2527 2517 2611)
3(2214 2314 2335)
3(2335 2142 2214)
3(2142 2115 2214)
3(1815 1915 1945)
3(1945 1745 1815)
3(1745 1714 1815)
3(1423 1515 1560)
3(1560 1363 1423)
3(1363 1321 1423)
3(1035 1133 1177)
3(1177 1000 1035)
3(1000 933 1035)
3(660 749 825)
3(660 825 670)
3(670 575 660)
3(360 413 548)
3(548 499 360)
3(499 334 360)
3(5363 5470 5474)
3(5474 5368 5363)
3(5257 5363 5368)
3(5368 5262 5257)
3(5151 5257 5262)
3(5262 5156 5151)
3(5045 5151 5156)
3(5156 5050 5045)
3(4939 5045 5050)
3(5050 4944 4939)
3(4833 4939 4944)
3(4944 4838 4833)
3(4727 4833 4838)
3(4838 4732 4727)
3(4621 4727 4732)
3(4732 4626 4621)
3(4515 4621 4626)
3(4626 4520 4515)
3(4409 4515 4520)
3(4520 4414 4409)
3(4303 4409 4414)
3(4414 4308 4303)
3(4202 4197 4303)
3(4303 4308 4202)
3(4096 4089 4197)
3(4197 4202 4096)
3(2957 3154 3213)
3(3213 2823 2957)
3(2823 2751 2957)
3(2554 2751 2823)
3(2823 2445 2554)
3(2445 2360 2554)
3(2165 2360 2445)
3(2445 2064 2165)
3(2064 1970 2165)
3(1785 1970 2064)
3(2064 1715 1785)
3(1715 1598 1785)
3(1419 1598 1715)
3(1715 1385 1419)
3(1385 1239 1419)
3(1061 1239 1385)
3(1385 1111 1061)
3(1111 906 1061)
3(780 906 1111)
3(1111 934 780)
3(934 688 780)
3(5368 5474 5478)
3(5478 5372 5368)
3(5262 5368 5372)
3(5372 5266 5262)
3(5156 5262 5266)
3(5266 5160 5156)
3(5050 5156 5160)
3(5160 5054 5050)
3(4944 5050 5054)
3(5054 4948 4944)
3(4838 4944 4948)
3(4948 4842 4838)
3(4732 4838 4842)
3(4842 4736 4732)
3(4626 4732 4736)
3(4736 4630 4626)
3(4520 4626 4630)
3(4630 4524 4520)
3(4418 4414 4520)
3(4520 4524 4418)
3(4312 4308 4414)
3(4414 4418 4312)
3(4206 4202 4308)
3(4308 4312 4206)
3(4105 4096 4202)
3(4202 4206 4105)
3(2910 2823 3213)
3(3213 3271 2910)
3(2823 2910 2547)
3(2547 2445 2823)
3(2445 2547 2186)
3(2186 2064 2445)
3(2064 2186 1860)
3(1860 1715 2064)
3(1715 1860 1567)
3(1567 1385 1715)
3(1385 1567 1331)
3(1331 1111 1385)
3(1190 934 1111)
3(1111 1331 1190)
3(2369 2386 2481)
3(2481 2464 2369)
3(2667 2668 2724)
3(2724 2722 2667)
3(2349 2325 2331)
3(2331 2373 2349)
3(2373 2372 2349)
3(1985 2012 2102)
3(2102 2078 1985)
3(2303 2266 2277)
3(2303 2277 2331)
3(2331 2325 2303)
3(1962 1960 1937)
3(1937 1941 1962)
3(1613 1642 1728)
3(1728 1701 1613)
3(1912 1914 1941)
3(1941 1937 1912)
3(1568 1547 1548)
3(1548 1570 1568)
3(1340 1257 1286)
3(1286 1368 1340)
3(1520 1521 1548)
3(1548 1547 1520)
3(1185 1159 1161)
3(1161 1192 1185)
3(1003 927 974)
3(974 1049 1003)
3(1159 1140 1142)
3(1142 1161 1159)
3(822 798 820)
3(822 820 850)
3(850 841 822)
3(711 774 804)
3(804 746 711)
3(779 755 781)
3(781 820 779)
3(820 798 779)
3(514 542 572)
3(572 535 514)
3(614 643 773)
3(614 773 672)
3(672 606 614)
3(773 742 672)
3(488 523 542)
3(542 514 488)
3(468 517 583)
3(583 540 468)
3(2747 2720 2722)
3(2722 2771 2747)
3(2771 2769 2747)
3(2325 2349 2348)
3(2348 2324 2325)
3(1960 1951 1928)
3(1928 1937 1960)
3(1180 1157 1159)
3(1159 1185 1180)
3(813 792 798)
3(798 822 813)
3(491 475 514)
3(514 535 491)
3(535 501 491)
3(433 394 446)
3(446 517 433)
3(517 468 433)
3(214 191 255)
3(214 255 300)
3(300 244 214)
3(3408 3405 3415)
3(3415 3417 3408)
3(3121 3144 3145)
3(3145 3090 3121)
3(3090 3089 3121)
3(3071 3089 3090)
3(3090 3051 3071)
3(3051 3049 3071)
3(2713 2739 2741)
3(2741 2683 2713)
3(2683 2682 2713)
3(2659 2682 2683)
3(2683 2639 2659)
3(2639 2636 2659)
3(2313 2336 2337)
3(2337 2278 2313)
3(2278 2276 2313)
3(2257 2276 2278)
3(2278 2232 2257)
3(2232 2231 2257)
3(1911 1936 1938)
3(1938 1882 1911)
3(1882 1879 1911)
3(1857 1879 1882)
3(1882 1835 1857)
3(1835 1834 1857)
3(1507 1532 1534)
3(1534 1480 1507)
3(1480 1479 1507)
3(1457 1479 1480)
3(1480 1435 1457)
3(1435 1433 1457)
3(1100 1124 1126)
3(1100 1126 1071)
3(1071 1070 1100)
3(1048 1070 1071)
3(1048 1071 1024)
3(1024 1022 1048)
3(685 710 715)
3(685 715 658)
3(658 653 685)
3(630 653 658)
3(630 658 607)
3(607 602 630)
3(222 245 253)
3(222 253 206)
3(206 195 222)
3(164 143 225)
3(164 225 255)
3(255 191 164)
3(174 195 206)
3(174 206 166)
3(166 148 174)
3(116 131 223)
3(116 223 201)
3(201 105 116)
3(2685 2683 2741)
3(2741 2743 2685)
3(3104 3110 3014)
3(3014 3010 3104)
3(2800 2805 2703)
3(2703 2698 2800)
3(2337 2338 2279)
3(2279 2278 2337)
3(2611 2604 2698)
3(2698 2703 2611)
3(2404 2414 2314)
3(2314 2301 2404)
3(1938 1939 1883)
3(1883 1882 1938)
3(2214 2201 2301)
3(2301 2314 2214)
3(1999 2014 1915)
3(1915 1900 1999)
3(1534 1535 1483)
3(1483 1480 1534)
3(1815 1797 1900)
3(1900 1915 1815)
3(1609 1619 1515)
3(1515 1508 1609)
3(1130 1074 1071)
3(1071 1126 1130)
3(1423 1410 1508)
3(1508 1515 1423)
3(1211 1230 1133)
3(1133 1112 1211)
3(718 665 658)
3(658 715 718)
3(1035 1012 1112)
3(1112 1133 1035)
3(842 749 720)
3(720 816 842)
3(206 253 268)
3(268 224 206)
3(626 720 749)
3(749 660 626)
3(336 429 487)
3(487 413 336)
3(157 178 252)
3(157 252 223)
3(223 131 157)
3(288 336 413)
3(413 360 288)
3(290 362 419)
3(419 347 290)
3(2762 2774 2873)
3(2873 2857 2762)
3(3136 3129 3032)
3(3032 3039 3136)
3(2722 2724 2777)
3(2777 2771 2722)
3(3170 3124 3129)
3(3129 3232 3170)
3(3232 3227 3170)
3(3390 3391 3422)
3(3410 3388 3390)
3(3390 3422 3410)
3(3422 3419 3410)
3(2926 2927 2983)
3(2983 2977 2926)
3(3081 3061 3062)
3(3062 3113 3081)
3(3113 3111 3081)
3(2907 2938 2939)
3(2548 2523 2524)
3(2524 2549 2548)
3(2129 2152 2151)
3(2151 2117 2129)
3(1739 1741 1760)
3(1760 1759 1739)
3(1348 1357 1379)
3(1379 1369 1348)
3(971 973 1001)
3(1001 993 971)
3(642 629 637)
3(637 656 642)
3(416 411 457)
3(416 457 464)
3(464 421 416)
3(3092 3090 3145)
3(3145 3147 3092)
3(3214 3110 3104)
3(3104 3206 3214)
3(2347 2350 2384)
3(2384 2341 2347)
3(2384 2350 2450)
3(2450 2439 2384)
3(2498 2467 2469)
3(2498 2469 2525)
3(2525 2524 2498)
3(2485 2439 2450)
3(2450 2550 2485)
3(2550 2537 2485)
3(2347 2298 2305)
3(2305 2350 2347)
3(2152 2129 2141)
3(2141 2181 2152)
3(2181 2171 2152)
3(2161 2213 2199)
3(2199 2150 2161)
3(1961 1964 2017)
3(2017 2001 1961)
3(2082 2084 2105)
3(2105 2071 2082)
3(2105 2084 2141)
3(2141 2129 2105)
3(2150 2103 2114)
3(2114 2161 2150)
3(1913 1919 1964)
3(1964 1961 1913)
3(1741 1742 1763)
3(1763 1760 1741)
3(1761 1766 1820)
3(1820 1814 1761)
3(1635 1622 1571)
3(1571 1585 1635)
3(1718 1742 1741)
3(1741 1713 1718)
3(1761 1716 1722)
3(1722 1766 1761)
3(1530 1543 1585)
3(1585 1571 1530)
3(1357 1359 1382)
3(1382 1379 1357)
3(1388 1406 1447)
3(1447 1438 1388)
3(1254 1208 1216)
3(1216 1261 1254)
3(1334 1339 1359)
3(1359 1357 1334)
3(1388 1343 1358)
3(1358 1406 1388)
3(1208 1158 1171)
3(1171 1216 1208)
3(973 982 1006)
3(1006 1001 973)
3(1026 1047 1087)
3(1087 1068 1026)
3(898 851 877)
3(877 922 898)
3(951 954 982)
3(982 973 951)
3(981 1002 1047)
3(1047 1026 981)
3(801 764 811)
3(801 811 851)
3(851 839 801)
3(811 877 851)
3(656 637 664)
3(656 664 700)
3(700 680 656)
3(724 696 743)
3(724 743 811)
3(811 764 724)
3(604 580 640)
3(640 693 604)
3(693 631 604)
3(619 605 632)
3(632 664 619)
3(664 637 619)
3(659 631 693)
3(693 743 659)
3(743 696 659)
3(2927 2926 2870)
3(2870 2872 2927)
3(3111 3109 3080)
3(3080 3081 3111)
3(2523 2497 2498)
3(2498 2524 2523)
3(2117 2098 2105)
3(2105 2129 2117)
3(1713 1741 1739)
3(1739 1712 1713)
3(1327 1334 1357)
3(1357 1348 1327)
3(973 971 949)
3(949 951 973)
3(629 608 619)
3(619 637 629)
3(273 244 300)
3(273 300 366)
3(366 304 273)
3(158 175 173)
3(173 155 158)
3(269 285 279)
3(279 267 269)
3(3289 3267 3268)
3(3268 3292 3289)
3(3266 3280 3282)
3(3266 3282 3247)
3(3247 3246 3266)
3(2920 2948 2949)
3(2949 2891 2920)
3(2891 2889 2920)
3(2865 2889 2891)
3(2891 2843 2865)
3(2843 2841 2865)
3(2518 2535 2536)
3(2536 2483 2518)
3(2483 2480 2518)
3(2458 2480 2483)
3(2483 2436 2458)
3(2436 2435 2458)
3(2113 2137 2138)
3(2138 2081 2113)
3(2081 2080 2113)
3(2060 2080 2081)
3(2081 2034 2060)
3(2034 2033 2060)
3(1705 1732 1735)
3(1735 1683 1705)
3(1683 1680 1705)
3(1658 1680 1683)
3(1683 1632 1658)
3(1632 1631 1658)
3(1307 1330 1332)
3(1307 1332 1277)
3(1277 1275 1307)
3(1255 1275 1277)
3(1277 1232 1255)
3(1232 1227 1255)
3(889 918 921)
3(889 921 865)
3(865 862 889)
3(837 862 865)
3(837 865 817)
3(817 815 837)
3(454 483 490)
3(454 490 426)
3(426 418 454)
3(388 418 426)
3(388 426 361)
3(361 350 388)
3(144 158 155)
3(155 141 144)
3(123 107 204)
3(204 225 123)
3(225 143 123)
3(50 44 27)
3(27 42 50)
3(48 66 93)
3(93 79 48)
3(79 46 48)
3(2647 2622 2625)
3(2647 2625 2667)
3(2667 2666 2647)
3(2686 2688 2718)
3(2718 2716 2686)
3(2621 2646 2643)
3(2643 2610 2621)
3(2222 2223 2248)
3(2248 2246 2222)
3(1859 1858 1836)
3(1836 1838 1859)
3(1468 1446 1449)
3(1449 1470 1468)
3(1086 1059 1060)
3(1060 1090 1086)
3(709 719 738)
3(738 725 709)
3(440 431 469)
3(440 469 488)
3(488 456 440)
3(461 439 428)
3(428 450 461)
3(402 390 409)
3(409 423 402)
3(3418 3419 3454)
3(3418 3454 3452)
3(3452 3416 3418)
3(3415 3412 3451)
3(3415 3451 3453)
3(3453 3417 3415)
3(3289 3292 3352)
3(3327 3287 3289)
3(3289 3352 3327)
3(3352 3351 3327)
3(3413 3404 3406)
3(3406 3414 3413)
3(2892 2891 2949)
3(2949 2951 2892)
3(3055 3094 3099)
3(3099 3005 3055)
3(3005 2999 3055)
3(2953 2999 3005)
3(3005 2897 2953)
3(2897 2894 2953)
3(2536 2539 2486)
3(2486 2483 2536)
3(2644 2687 2693)
3(2693 2600 2644)
3(2600 2594 2644)
3(2542 2594 2600)
3(2600 2495 2542)
3(2495 2489 2542)
3(2138 2139 2083)
3(2083 2081 2138)
3(2236 2281 2292)
3(2292 2191 2236)
3(2191 2183 2236)
3(2143 2183 2191)
3(2191 2090 2143)
3(2090 2085 2143)
3(1738 1684 1683)
3(1683 1735 1738)
3(1839 1885 1893)
3(1893 1793 1839)
3(1793 1783 1839)
3(1740 1783 1793)
3(1793 1691 1740)
3(1691 1685 1740)
3(1335 1278 1277)
3(1277 1332 1335)
3(1440 1485 1495)
3(1495 1395 1440)
3(1395 1383 1440)
3(1338 1383 1395)
3(1338 1395 1293)
3(1293 1283 1338)
3(924 868 865)
3(865 921 924)
3(1033 1081 1091)
3(1033 1091 997)
3(997 977 1033)
3(926 977 997)
3(926 997 892)
3(892 872 926)
3(426 490 496)
3(496 437 426)
3(618 671 697)
3(618 697 589)
3(589 560 618)
3(512 560 589)
3(512 589 485)
3(485 455 512)
3(114 79 93)
3(93 125 114)
3(203 243 280)
3(203 280 227)
3(227 176 203)
3(154 176 227)
3(154 227 205)
3(205 146 154)
3(2672 2635 2648)
3(2672 2648 2749)
3(2749 2730 2672)
3(2549 2524 2525)
3(2549 2525 2574)
3(2574 2573 2549)
3(2587 2537 2550)
3(2587 2550 2648)
3(2648 2635 2587)
3(1963 1944 1946)
3(1946 1993 1963)
3(1993 1987 1963)
3(2025 2009 2013)
3(2013 2035 2025)
3(2015 1987 1993)
3(2015 1993 2043)
3(2043 2039 2015)
3(1918 1891 1896)
3(1896 1946 1918)
3(1946 1944 1918)
3(1862 1859 1838)
3(1838 1841 1862)
3(1864 1844 1846)
3(1846 1896 1864)
3(1896 1891 1864)
3(1561 1566 1615)
3(1615 1599 1561)
3(1572 1558 1561)
3(1561 1599 1572)
3(1618 1621 1648)
3(1648 1644 1618)
3(1623 1599 1615)
3(1623 1615 1663)
3(1663 1650 1623)
3(1537 1544 1566)
3(1566 1561 1537)
3(1470 1449 1458)
3(1458 1477 1470)
3(1482 1461 1469)
3(1469 1512 1482)
3(1511 1509 1482)
3(1482 1512 1511)
3(1203 1173 1187)
3(1203 1187 1238)
3(1238 1217 1203)
3(1240 1260 1259)
3(1259 1237 1240)
3(1243 1217 1238)
3(1243 1238 1280)
3(1280 1263 1243)
3(1154 1131 1141)
3(1154 1141 1187)
3(1187 1173 1154)
3(1090 1060 1072)
3(1072 1102 1090)
3(1106 1080 1101)
3(1106 1101 1141)
3(1141 1131 1106)
3(557 543 616)
3(616 640 557)
3(640 580 557)
3(492 497 464)
3(464 457 492)
3(533 527 606)
3(606 616 533)
3(616 543 533)
3(2793 2769 2771)
3(2771 2824 2793)
3(2824 2821 2793)
3(2716 2718 2746)
3(2746 2744 2716)
3(2820 2819 2789)
3(2789 2792 2820)
3(2401 2403 2424)
3(2424 2423 2401)
3(2000 2009 2025)
3(2025 2024 2000)
3(1644 1618 1618)
3(1618 1644 1644)
3(1234 1237 1259)
3(1259 1258 1234)
3(874 847 863)
3(863 879 874)
3(521 501 535)
3(521 535 551)
3(551 538 521)
3(535 570 551)
3(439 461 470)
3(470 458 439)
3(516 493 507)
3(507 524 516)
3(411 420 463)
3(463 457 411)
3(349 304 366)
3(366 446 349)
3(446 394 349)
3(285 303 301)
3(301 279 285)
3(3404 3413 3411)
3(3411 3402 3404)
3(3316 3334 3335)
3(3316 3335 3282)
3(3282 3280 3316)
3(3119 3120 3088)
3(3088 3087 3119)
3(3169 3189 3190)
3(3169 3190 3145)
3(3145 3144 3169)
3(3167 3186 3187)
3(3187 3168 3167)
3(3087 3088 3070)
3(3070 3068 3087)
3(3026 3049 3051)
3(3051 2997 3026)
3(2997 2996 3026)
3(3024 3025 2995)
3(2995 2993 3024)
3(2680 2679 2710)
3(2710 2711 2680)
3(2765 2787 2788)
3(2788 2741 2765)
3(2741 2739 2765)
3(2785 2786 2764)
3(2764 2763 2785)
3(2679 2680 2658)
3(2658 2656 2679)
3(2619 2636 2639)
3(2639 2589 2619)
3(2589 2586 2619)
3(2617 2618 2585)
3(2585 2583 2617)
3(2275 2274 2311)
3(2311 2312 2275)
3(2358 2381 2382)
3(2382 2337 2358)
3(2337 2336 2358)
3(2379 2380 2357)
3(2357 2356 2379)
3(2274 2275 2256)
3(2256 2255 2274)
3(2212 2231 2232)
3(2232 2180 2212)
3(2180 2179 2212)
3(2178 2177 2210)
3(2210 2211 2178)
3(1878 1877 1908)
3(1908 1909 1878)
3(1959 1980 1981)
3(1981 1938 1959)
3(1938 1936 1959)
3(1977 1978 1958)
3(1958 1957 1977)
3(1877 1878 1856)
3(1856 1854 1877)
3(1809 1834 1835)
3(1835 1778 1809)
3(1778 1776 1809)
3(1775 1773 1806)
3(1806 1807 1775)
3(1478 1476 1504)
3(1504 1505 1478)
3(1559 1580 1581)
3(1581 1534 1559)
3(1534 1532 1559)
3(1578 1579 1557)
3(1557 1556 1578)
3(1478 1456 1455)
3(1455 1476 1478)
3(1408 1433 1435)
3(1435 1380 1408)
3(1380 1378 1408)
3(1375 1405 1407)
3(1407 1377 1375)
3(1067 1097 1098)
3(1098 1069 1067)
3(1151 1170 1175)
3(1151 1175 1126)
3(1126 1124 1151)
3(1168 1169 1150)
3(1150 1148 1168)
3(1069 1046 1045)
3(1045 1067 1069)
3(998 1022 1024)
3(998 1024 969)
3(969 965 998)
3(962 994 996)
3(996 964 962)
3(651 681 683)
3(683 652 651)
3(737 763 765)
3(737 765 715)
3(715 710 737)
3(762 735 734)
3(734 760 762)
3(652 628 627)
3(627 651 652)
3(573 602 607)
3(573 607 544)
3(544 539 573)
3(536 568 569)
3(569 537 536)
3(192 213 219)
3(219 193 192)
3(270 293 298)
3(270 298 253)
3(253 245 270)
3(261 287 289)
3(289 266 261)
3(165 192 193)
3(193 168 165)
3(128 148 166)
3(128 166 126)
3(126 102 128)
3(92 115 117)
3(117 96 92)
3(98 105 201)
3(201 204 98)
3(204 107 98)
3(63 46 79)
3(79 97 63)
3(97 77 63)
3(42 27 19)
3(19 28 42)
3(2844 2843 2891)
3(2891 2892 2844)
3(2745 2791 2796)
3(2796 2693 2745)
3(2693 2687 2745)
3(2846 2894 2897)
3(2897 2796 2846)
3(2796 2791 2846)
3(2437 2436 2483)
3(2483 2486 2437)
3(2339 2387 2396)
3(2396 2292 2339)
3(2292 2281 2339)
3(2442 2489 2495)
3(2495 2396 2442)
3(2396 2387 2442)
3(2036 2034 2081)
3(2081 2083 2036)
3(1942 1986 1991)
3(1991 1893 1942)
3(1893 1885 1942)
3(2037 2085 2090)
3(2090 1991 2037)
3(1991 1986 2037)
3(1634 1632 1683)
3(1683 1684 1634)
3(1539 1583 1595)
3(1595 1495 1539)
3(1495 1485 1539)
3(1640 1685 1691)
3(1691 1595 1640)
3(1595 1583 1640)
3(1235 1232 1277)
3(1277 1278 1235)
3(1137 1182 1193)
3(1137 1193 1091)
3(1091 1081 1137)
3(1236 1283 1293)
3(1293 1193 1236)
3(1193 1182 1236)
3(817 865 868)
3(868 823 817)
3(723 777 794)
3(723 794 697)
3(697 671 723)
3(827 872 892)
3(827 892 794)
3(794 777 827)
3(361 426 437)
3(437 370 361)
3(278 326 373)
3(278 373 280)
3(280 243 278)
3(391 455 485)
3(391 485 373)
3(373 326 391)
3(2779 2730 2749)
3(2749 2849 2779)
3(2849 2833 2779)
3(2930 2927 2872)
3(2872 2875 2930)
3(2879 2833 2849)
3(2849 2954 2879)
3(2954 2935 2879)
3(3109 3111 3161)
3(3135 3108 3109)
3(3109 3161 3135)
3(3161 3160 3135)
3(3253 3254 3294)
3(3268 3252 3253)
3(3253 3294 3268)
3(3294 3292 3268)
3(3256 3258 3307)
3(3307 3304 3256)
3(2952 2950 2921)
3(2921 2922 2952)
3(2987 3016 3015)
3(3015 2979 2987)
3(2975 2976 3027)
3(2994 2973 2975)
3(2975 3027 2994)
3(3027 3023 2994)
3(2572 2573 2625)
3(2625 2622 2572)
3(2599 2571 2572)
3(2572 2622 2599)
3(2545 2544 2509)
3(2610 2590 2595)
3(2595 2621 2610)
3(2684 2686 2716)
3(2716 2715 2684)
3(2643 2645 2610)
3(2200 2202 2223)
3(2223 2222 2200)
3(1812 1813 1838)
3(1838 1836 1812)
3(1446 1421 1425)
3(1425 1449 1446)
3(1059 1037 1044)
3(1044 1060 1059)
3(719 709 692)
3(692 699 719)
3(425 421 464)
3(464 469 425)
3(469 431 425)
3(392 396 371)
3(371 369 392)
3(390 384 403)
3(403 409 390)
3(414 428 439)
3(387 368 390)
3(390 402 387)
3(369 371 355)
3(355 354 369)
3(368 359 384)
3(384 390 368)
3(3283 3248 3247)
3(3247 3282 3283)
3(3149 3195 3200)
3(3200 3099 3149)
3(3099 3094 3149)
3(3250 3284 3290)
3(3250 3290 3200)
3(3200 3195 3250)
3(2202 2171 2181)
3(2181 2233 2202)
3(2233 2223 2202)
3(2141 2144 2188)
3(2188 2181 2141)
3(2181 2188 2240)
3(2240 2233 2181)
3(2051 2025 2035)
3(2035 2061 2051)
3(2141 2084 2092)
3(2092 2144 2141)
3(2062 2039 2043)
3(2062 2043 2092)
3(2092 2084 2062)
3(1813 1816 1841)
3(1841 1838 1813)
3(1764 1744 1756)
3(1756 1799 1764)
3(1799 1794 1764)
3(1818 1794 1799)
3(1799 1846 1818)
3(1846 1844 1818)
3(1664 1644 1648)
3(1648 1665 1664)
3(1719 1693 1709)
3(1719 1709 1756)
3(1756 1744 1719)
3(1667 1650 1663)
3(1667 1663 1709)
3(1709 1693 1667)
3(1449 1425 1436)
3(1436 1458 1449)
3(1387 1362 1376)
3(1376 1424 1387)
3(1424 1414 1387)
3(1439 1414 1424)
3(1439 1424 1469)
3(1469 1461 1439)
3(1260 1288 1279)
3(1279 1259 1260)
3(1342 1315 1333)
3(1342 1333 1376)
3(1376 1362 1342)
3(1290 1263 1280)
3(1290 1280 1333)
3(1333 1315 1290)
3(1060 1044 1051)
3(1051 1072 1060)
3(1014 995 1009)
3(1009 1053 1014)
3(1053 1038 1014)
3(1058 1038 1053)
3(1058 1053 1101)
3(1101 1080 1058)
3(903 879 901)
3(903 901 942)
3(942 929 903)
3(901 950 942)
3(967 950 960)
3(960 1009 967)
3(1009 995 967)
3(950 901 923)
3(923 960 950)
3(2715 2716 2744)
3(2744 2740 2715)
3(2789 2819 2818)
3(2818 2776 2789)
3(2922 2921 2890)
3(2890 2893 2922)
3(2818 2819 2845)
3(2845 2842 2818)
3(3107 3102 3078)
3(3015 3041 3038)
3(3038 3009 3015)
3(2986 2979 3015)
3(3015 3009 2986)
3(2423 2424 2448)
3(2448 2447 2423)
3(2025 2051 2047)
3(2047 2024 2025)
3(1644 1664 1664)
3(1664 1644 1644)
3(1258 1259 1279)
3(1279 1276 1258)
3(899 874 879)
3(879 903 899)
3(551 570 585)
3(585 574 551)
3(528 516 524)
3(524 541 528)
3(177 167 191)
3(177 191 214)
3(214 194 177)
3(202 221 220)
3(220 200 202)
3(207 194 214)
3(207 214 244)
3(244 226 207)
3(272 254 273)
3(272 273 304)
3(304 291 272)
3(232 220 221)
3(221 234 232)
3(242 226 244)
3(242 244 273)
3(273 254 242)
3(3196 3233 3230)
3(3264 3296 3279)
3(3118 3119 3087)
3(3087 3086 3118)
3(3166 3185 3186)
3(3186 3167 3166)
3(3226 3246 3247)
3(3226 3247 3190)
3(3190 3189 3226)
3(3281 3265 3263)
3(3263 3278 3281)
3(3186 3222 3225)
3(3225 3187 3186)
3(3262 3276 3278)
3(3278 3263 3262)
3(3185 3221 3222)
3(3222 3186 3185)
3(3086 3087 3068)
3(3068 3067 3086)
3(3022 3024 2993)
3(2993 2992 3022)
3(2974 2996 2997)
3(2997 2949 2974)
3(2949 2948 2974)
3(2917 2919 2888)
3(2888 2887 2917)
3(2993 2995 2972)
3(2972 2971 2993)
3(2916 2917 2887)
3(2887 2885 2916)
3(2992 2993 2971)
3(2971 2970 2992)
3(2709 2710 2679)
3(2679 2678 2709)
3(2784 2785 2763)
3(2763 2761 2784)
3(2816 2841 2843)
3(2843 2788 2816)
3(2788 2787 2816)
3(2887 2888 2864)
3(2864 2863 2887)
3(2812 2813 2786)
3(2786 2785 2812)
3(2885 2887 2863)
3(2863 2862 2885)
3(2811 2812 2785)
3(2785 2784 2811)
3(2678 2679 2656)
3(2656 2655 2678)
3(2616 2617 2583)
3(2583 2582 2616)
3(2562 2586 2589)
3(2589 2536 2562)
3(2536 2535 2562)
3(2515 2516 2478)
3(2478 2477 2515)
3(2583 2585 2561)
3(2561 2560 2583)
3(2514 2515 2477)
3(2477 2476 2514)
3(2582 2583 2560)
3(2560 2559 2582)
3(2274 2272 2310)
3(2310 2311 2274)
3(2356 2355 2378)
3(2378 2379 2356)
3(2413 2435 2436)
3(2436 2382 2413)
3(2382 2381 2413)
3(2457 2456 2477)
3(2477 2478 2457)
3(2380 2379 2411)
3(2411 2412 2380)
3(2456 2455 2476)
3(2476 2477 2456)
3(2379 2378 2410)
3(2410 2411 2379)
3(2272 2274 2255)
3(2255 2254 2272)
3(2209 2210 2177)
3(2177 2176 2209)
3(2160 2179 2180)
3(2180 2138 2160)
3(2138 2137 2160)
3(2111 2112 2079)
3(2079 2077 2111)
3(2177 2178 2159)
3(2159 2158 2177)
3(2110 2111 2077)
3(2077 2076 2110)
3(2176 2177 2158)
3(2158 2157 2176)
3(1877 1876 1906)
3(1906 1908 1877)
3(1957 1956 1976)
3(1976 1977 1957)
3(2011 2033 2034)
3(2034 1981 2011)
3(1981 1980 2011)
3(2059 2057 2077)
3(2077 2079 2059)
3(1978 1977 2008)
3(2008 2010 1978)
3(2057 2056 2076)
3(2076 2077 2057)
3(1977 1976 2007)
3(2007 2008 1977)
3(1876 1877 1854)
3(1854 1853 1876)
3(1805 1806 1773)
3(1773 1772 1805)
3(1754 1776 1778)
3(1778 1735 1754)
3(1735 1732 1754)
3(1704 1678 1677)
3(1677 1703 1704)
3(1773 1775 1752)
3(1752 1751 1773)
3(1703 1677 1676)
3(1676 1700 1703)
3(1772 1773 1751)
3(1751 1750 1772)
3(1476 1475 1503)
3(1503 1504 1476)
3(1556 1555 1577)
3(1577 1578 1556)
3(1608 1631 1632)
3(1632 1581 1608)
3(1581 1580 1608)
3(1657 1656 1677)
3(1677 1678 1657)
3(1579 1578 1606)
3(1606 1607 1579)
3(1656 1655 1676)
3(1676 1677 1656)
3(1578 1577 1605)
3(1605 1606 1578)
3(1475 1476 1455)
3(1455 1454 1475)
3(1405 1375 1374)
3(1374 1403 1405)
3(1356 1378 1380)
3(1356 1380 1332)
3(1332 1330 1356)
3(1305 1274 1272)
3(1272 1304 1305)
3(1377 1355 1354)
3(1354 1375 1377)
3(1304 1272 1271)
3(1271 1303 1304)
3(1375 1354 1353)
3(1353 1374 1375)
3(1066 1096 1097)
3(1097 1067 1066)
3(1148 1147 1167)
3(1167 1168 1148)
3(1204 1227 1232)
3(1232 1175 1204)
3(1175 1170 1204)
3(1253 1251 1272)
3(1272 1274 1253)
3(1169 1168 1200)
3(1200 1201 1169)
3(1251 1250 1271)
3(1271 1272 1251)
3(1168 1167 1198)
3(1198 1200 1168)
3(1067 1045 1043)
3(1043 1066 1067)
3(994 962 961)
3(961 992 994)
3(946 965 969)
3(946 969 921)
3(921 918 946)
3(887 860 857)
3(857 886 887)
3(964 945 943)
3(943 962 964)
3(886 857 856)
3(856 885 886)
3(962 943 941)
3(941 961 962)
3(650 679 681)
3(681 651 650)
3(732 758 760)
3(760 734 732)
3(791 815 817)
3(791 817 765)
3(765 763 791)
3(835 857 860)
3(860 836 835)
3(760 789 790)
3(790 762 760)
3(834 856 857)
3(857 835 834)
3(758 788 789)
3(789 760 758)
3(651 627 624)
3(624 650 651)
3(568 536 534)
3(534 566 568)
3(515 539 544)
3(515 544 490)
3(490 483 515)
3(412 449 452)
3(452 415 412)
3(537 513 510)
3(510 536 537)
3(449 412 410)
3(410 448 449)
3(536 510 506)
3(506 534 536)
3(189 212 213)
3(213 192 189)
3(260 286 287)
3(287 261 260)
3(318 350 361)
3(318 361 298)
3(298 293 318)
3(383 412 415)
3(415 386 383)
3(287 312 315)
3(315 289 287)
3(380 410 412)
3(412 383 380)
3(286 310 312)
3(312 287 286)
3(149 133 164)
3(149 164 191)
3(191 167 149)
3(95 112 104)
3(104 91 95)
3(122 106 143)
3(122 143 164)
3(164 133 122)
3(91 75 78)
3(78 95 91)
3(70 65 107)
3(107 123 70)
3(123 80 70)
3(94 80 123)
3(123 143 94)
3(143 106 94)
3(163 189 192)
3(192 165 163)
3(86 113 115)
3(115 92 86)
3(81 102 126)
3(81 126 93)
3(93 66 81)
3(35 21 20)
3(20 36 35)
3(67 92 96)
3(96 76 67)
3(20 21 9)
3(9 18 20)
3(64 86 92)
3(92 67 64)
3(3249 3150 3171)
3(3171 3361 3249)
3(3361 3338 3249)
3(3329 3338 3443)
3(3399 3322 3329)
3(3329 3443 3399)
3(3443 3440 3399)
3(3129 3136 3236)
3(3236 3232 3129)
3(2299 2264 2266)
3(2266 2303 2299)
3(2299 2324 2322)
3(2322 2296 2299)
3(2264 2299 2296)
3(2296 2262 2264)
3(1880 1884 1912)
3(1912 1907 1880)
3(1492 1496 1520)
3(1138 1109 1114)
3(1114 1140 1138)
3(744 755 779)
3(779 766 744)
3(783 759 766)
3(766 792 783)
3(739 744 766)
3(766 759 739)
3(2373 2331 2341)
3(2341 2384 2373)
3(2403 2372 2373)
3(2373 2426 2403)
3(2426 2424 2403)
3(2373 2384 2439)
3(2439 2426 2373)
3(2331 2277 2282)
3(2282 2341 2331)
3(2248 2223 2233)
3(2248 2233 2277)
3(2277 2266 2248)
3(2277 2233 2240)
3(2240 2282 2277)
3(1570 1548 1558)
3(1558 1572 1570)
3(1570 1596 1592)
3(1592 1568 1570)
3(1596 1570 1572)
3(1572 1599 1596)
3(1521 1533 1558)
3(1558 1548 1521)
3(1521 1520 1496)
3(1496 1498 1521)