
5490
(
(0.0005813923 0 0.002806751)
(0.002916412 0 0.004500472)
(0.005835186 0 0.006617623)
(0.003269327 0 -0.00873074)
(0.0005282868 0 -0.009629464)
(0.006695628 0 -0.007607336)
(0.0109785 0 -0.006203081)
(0.009483654 0 0.009264062)
(0.0163321 0 -0.004447763)
(0.01404424 0 0.01257211)
(-0.02011864 0 0.008929008)
(0.003341139 0 -0.02184192)
(0.0004747541 0 -0.02216571)
(-0.02146144 0 0.005582596)
(0.006924121 0 -0.02143718)
(-0.01844015 0 0.01311202)
(-0.02253567 0 0.002905466)
(0.01140285 0 -0.02093125)
(-0.01634203 0 0.01834079)
(0.01700126 0 -0.02029884)
(-0.01322204 0 0.03269717)
(0.01791265 0 0.03082807)
(0.0004153878 0 -0.03606808)
(0.003299302 0 -0.03600448)
(0.006904195 0 -0.03592499)
(0.01141031 0 -0.03582562)
(0.03925392 0 -0.002972995)
(0.01704296 0 -0.0357014)
(0.03803759 0 -0.01983525)
(0.04144322 0 0.01496358)
(-0.04396872 0 0.005865364)
(-0.04428689 0 0.002998349)
(-0.04357101 0 0.009449132)
(-0.04307387 0 0.01392884)
(-0.04245244 0 0.01952848)
(0.01634366 0 0.04415645)
(-0.01284921 0 0.04690669)
(0.04059122 0 0.02951353)
(0.000354732 0 -0.05027244)
(0.003239346 0 -0.05027478)
(0.006845114 0 -0.05027771)
(0.01135232 0 -0.05028137)
(0.03751406 0 -0.03552808)
(-0.04128001 0 0.03282302)
(0.01698634 0 -0.05028595)
(0.03989684 0 0.04325898)
(0.01546124 0 0.05808115)
(0.06175207 0 -0.003006868)
(-0.01279091 0 0.06102116)
(-0.04075576 0 0.04731987)
(0.03726489 0 -0.05031818)
(0.06084754 0 -0.01988382)
(0.06252559 0 0.01414355)
(0.0002936292 0 -0.06458146)
(0.003178221 0 -0.06459318)
(0.00678396 0 -0.06460784)
(0.01129113 0 -0.06462616)
(0.0169251 0 -0.06464906)
(-0.06720136 0 0.003096199)
(-0.06713529 0 0.005980057)
(-0.0670527 0 0.009584881)
(-0.06694946 0 0.01409091)
(0.06227879 0 0.02903531)
(0.03937749 0 0.05721445)
(-0.06682041 0 0.01972345)
(0.06021732 0 -0.03563542)
(-0.04040529 0 0.06167174)
(-0.06627779 0 0.03268945)
(0.03713817 0 -0.06476045)
(0.06218788 0 0.04305532)
(0.05973426 0 -0.05046415)
(0.0002322571 0 -0.07895355)
(0.003116846 0 -0.07896587)
(0.006722583 0 -0.07898127)
(0.01122975 0 -0.07900051)
(0.01686372 0 -0.07902457)
(-0.06585158 0 0.04707044)
(0.06178544 0 0.05700547)
(0.03704811 0 -0.07913923)
(0.01429892 0 0.08648737)
(0.05954406 0 -0.06492481)
(-0.06553857 0 0.06141495)
(-0.09014264 0 0.003194163)
(-0.09012476 0 0.006078723)
(-0.09010241 0 0.009684423)
(-0.09007448 0 0.01419155)
(-0.09003956 0 0.01982545)
(0.0001707516 0 -0.09335687)
(0.003055341 0 -0.09336919)
(0.006661077 0 -0.09338459)
(0.01116825 0 -0.09340383)
(0.01680221 0 -0.09342789)
(-0.08976435 0 0.03268272)
(-0.03943226 0 0.09004849)
(0.05937663 0 -0.07928124)
(0.03697988 0 -0.09353475)
(-0.08944348 0 0.04694188)
(0.06102131 0 0.08521799)
(0.1064998 0 -0.003681703)
(0.000109192 0 -0.1077729)
(0.002993781 0 -0.1077852)
(0.006599517 0 -0.1078006)
(-0.08914436 0 0.06126897)
(0.01110669 0 -0.1078198)
(0.01674065 0 -0.1078439)
(0.1065948 0 0.02756318)
(0.05931053 0 -0.09367945)
(0.1055939 0 -0.03523427)
(-0.1129796 0 0.003291682)
(-0.112967 0 0.00617627)
(-0.1129513 0 0.009782005)
(-0.1129316 0 0.01428917)
(0.03691293 0 -0.1079418)
(-0.112907 0 0.01992313)
(0.01366391 0 0.1148775)
(-0.1127443 0 0.03273733)
(0.106412 0 0.05658205)
(-0.11251 0 0.04691561)
(4.761307e-005 0 -0.1221934)
(0.002932202 0 -0.1222057)
(0.006537939 0 -0.1222211)
(0.01104511 0 -0.1222404)
(0.05920945 0 -0.1080608)
(0.1047163 0 -0.06501546)
(0.01667907 0 -0.1222644)
(-0.03930836 0 0.1184727)
(-0.08843349 0 0.08995335)
(0.03685206 0 -0.1223594)
(-0.112304 0 0.06115348)
(0.06049578 0 0.1135191)
(-0.1357548 0 0.003388938)
(0.1060078 0 0.08500163)
(-0.1357425 0 0.006273527)
(0.05914945 0 -0.1224811)
(-0.1357271 0 0.009879263)
(-0.1357079 0 0.01438643)
(-1.397226e-005 0 -0.1366154)
(0.002870617 0 -0.1366277)
(0.006476353 0 -0.1366431)
(0.01098352 0 -0.1366624)
(-0.1356838 0 0.0200204)
(0.01661749 0 -0.1366864)
(-0.1355695 0 0.03281612)
(0.1043965 0 -0.09398845)
(0.03679247 0 -0.1367793)
(-0.1353895 0 0.04695623)
(0.01309621 0 0.143461)
(-0.08816372 0 0.118547)
(-0.13519 0 0.06118585)
(0.05908593 0 -0.1368908)
(-7.555977e-005 0 -0.1510379)
(0.002809029 0 -0.1510503)
(0.006414766 0 -0.1510657)
(0.01092194 0 -0.1510849)
(-0.03906361 0 0.1468362)
(0.0165559 0 -0.151109)
(0.06002455 0 0.1420542)
(0.1057505 0 0.1132704)
(0.03673598 0 -0.1512037)
(-0.1585001 0 0.003486065)
(-0.1584878 0 0.006370654)
(-0.1584724 0 0.009976391)
(-0.1584531 0 0.01448356)
(-0.1584291 0 0.02011752)
(0.104085 0 -0.1227611)
(-0.1583406 0 0.0329033)
(-0.1347689 0 0.08978581)
(0.05904691 0 -0.1513284)
(-0.158205 0 0.04701663)
(-0.0001371494 0 -0.165461)
(0.00274744 0 -0.1654733)
(0.006353176 0 -0.1654887)
(0.01086035 0 -0.1655079)
(0.01649431 0 -0.165532)
(-0.1580673 0 0.06119652)
(0.03667726 0 -0.1656283)
(-0.08783151 0 0.1470873)
(0.05898029 0 -0.1657454)
(0.1053431 0 0.1418187)
(-0.1344761 0 0.118371)
(-0.0001987477 0 -0.179886)
(0.002685841 0 -0.1798984)
(0.006291578 0 -0.1799138)
(0.01079875 0 -0.179933)
(0.01643271 0 -0.1799571)
(-0.181233 0 0.00358314)
(-0.1812207 0 0.006467729)
(-0.1812053 0 0.01007347)
(-0.1811861 0 0.01458064)
(-0.181162 0 0.0202146)
(0.03662245 0 -0.1800612)
(0.1040556 0 -0.1516369)
(-0.1810871 0 0.03299547)
(-0.1809747 0 0.04709739)
(0.05894264 0 -0.1801992)
(-0.1808363 0 0.06127899)
(-0.0002603787 0 -0.1943187)
(0.00262421 0 -0.1943311)
(0.006229947 0 -0.1943465)
(0.01073712 0 -0.1943657)
(0.01637108 0 -0.1943898)
(0.1960491 0 0.02608173)
(0.03656975 0 -0.194506)
(-0.1342511 0 0.1468966)
(0.1959356 0 -0.03515564)
(0.01235142 0 0.2005573)
(-0.1805165 0 0.08978725)
(0.05889943 0 -0.194649)
(-0.2039617 0 0.003680197)
(-0.2039494 0 0.006564786)
(-0.203934 0 0.01017052)
(-0.2039148 0 0.01467769)
(-0.2038907 0 0.02031166)
(-0.2038238 0 0.03308928)
(0.1039289 0 -0.1805202)
(-0.0003221071 0 -0.2087743)
(0.002562482 0 -0.2087866)
(0.006168218 0 -0.208802)
(0.01067539 0 -0.2088212)
(-0.2037308 0 0.04718087)
(0.01630935 0 -0.2088453)
(0.03652743 0 -0.2089884)
(-0.2036305 0 0.0613364)
(0.195661 0 0.08439592)
(-0.1802348 0 0.1183354)
(0.1951133 0 -0.09436085)
(0.05891659 0 -0.2091797)
(-0.0863477 0 0.204014)
(-0.0003840751 0 -0.2232859)
(0.002500512 0 -0.2232987)
(0.006106246 0 -0.2233147)
(0.01061341 0 -0.2233346)
(0.01624737 0 -0.2233596)
(0.1045473 0 0.1990561)
(0.0364937 0 -0.2235505)
(-0.2266892 0 0.003777248)
(-0.2266768 0 0.006661837)
(-0.2266614 0 0.01026757)
(-0.2266422 0 0.01477474)
(-0.2266181 0 0.02040871)
(-0.2265552 0 0.03318475)
(-0.2264705 0 0.04727238)
(0.05890366 0 -0.2237541)
(-0.1799946 0 0.1469031)
(0.1041184 0 -0.2096901)
(-0.2263658 0 0.0614306)
(-0.000446542 0 -0.2379144)
(0.002438002 0 -0.2379346)
(0.006043682 0 -0.23796)
(0.01055078 0 -0.2379916)
(0.01618466 0 -0.2380312)
(0.03650831 0 -0.2383402)
(0.195468 0 0.1414428)
(-0.2261138 0 0.08987703)
(0.05905859 0 -0.2386243)
(0.1947532 0 -0.1523481)
(-0.2494163 0 0.003874298)
(-0.249404 0 0.006758887)
(-0.2493886 0 0.01036462)
(-0.2493693 0 0.01487179)
(-0.2493453 0 0.02050576)
(-0.2492851 0 0.03328066)
(-0.0005098639 0 -0.2527431)
(0.002373759 0 -0.2528187)
(0.005978288 0 -0.2529133)
(0.01048395 0 -0.2530315)
(-0.2492086 0 0.04736376)
(0.01611602 0 -0.2531793)
(-0.2258685 0 0.1183742)
(0.03662464 0 -0.2537051)
(-0.2491262 0 0.06150832)
(0.01171972 0 0.2576839)
(0.05930194 0 -0.2540001)
(0.104391 0 -0.2395834)
(-0.0005736212 0 -0.2676737)
(0.002294341 0 -0.2679832)
(0.005879294 0 -0.2683701)
(0.01036048 0 -0.2688537)
(-0.2256613 0 0.146867)
(0.01596197 0 -0.2694582)
(-0.1794492 0 0.2040614)
(-0.2721434 0 0.003971348)
(-0.2721311 0 0.006855937)
(-0.2721157 0 0.01046167)
(-0.2720964 0 0.01496884)
(0.03704504 0 -0.2703012)
(-0.2720724 0 0.02060281)
(-0.2720135 0 0.0333773)
(-0.08607258 0 0.2609438)
(-0.2719399 0 0.04745895)
(0.1038934 0 0.2562029)
(0.05993327 0 -0.2706187)
(0.1950133 0 0.1986803)
(-0.2718527 0 0.06160548)
(-0.0006339447 0 -0.2818002)
(0.002113944 0 -0.2826778)
(0.005548806 0 -0.2837747)
(0.009842382 0 -0.2851459)
(-0.2716452 0 0.09001652)
(0.2858488 0 0.02538445)
(0.1948869 0 -0.2107743)
(0.01520935 0 -0.2868599)
(0.2863142 0 -0.03572806)
(0.03809052 0 -0.2886751)
(0.1051203 0 -0.2715485)
(-0.2948705 0 0.004068398)
(-0.2948581 0 0.006952987)
(-0.2948427 0 0.01055872)
(0.06058955 0 -0.2887908)
(-0.2948235 0 0.01506589)
(-0.2947994 0 0.02069986)
(-0.2714294 0 0.1184886)
(-0.2947417 0 0.03347413)
(-0.0006996647 0 -0.2971905)
(0.2854388 0 0.08394491)
(-0.2946722 0 0.04755375)
(0.001582033 0 -0.2989554)
(-0.0199805 0 -0.2993161)
(-0.2945985 0 0.06169321)
(0.004434156 0 -0.3011615)
(0.2858363 0 -0.09497545)
(-0.01856394 0 -0.301829)
(0.007999309 0 -0.3039192)
(-0.01679325 0 -0.30497)
(-0.05157859 0 -0.3028096)
(0.01245575 0 -0.3073663)
(-0.2712167 0 0.1470129)
(-0.01457987 0 -0.3088963)
(-0.05101754 0 -0.3056391)
(0.03979041 0 -0.3086793)
(-0.07055171 0 -0.3049353)
(0.06080688 0 -0.3071821)
(-0.05031621 0 -0.309176)
(-0.01181316 0 -0.3138042)
(0.01100989 0 0.3148816)
(-0.07018254 0 -0.3077962)
(-0.1791604 0 0.2611062)
(-0.04943956 0 -0.3135972)
(-0.3175975 0 0.004165448)
(-0.3175852 0 0.007050037)
(-0.3175698 0 0.01065577)
(-0.3175506 0 0.01516294)
(-0.3175265 0 0.02079691)
(-0.06972106 0 -0.3113723)
(-0.3174694 0 0.03357136)
(-0.0919414 0 -0.3073913)
(-0.317401 0 0.0476505)
(0.1945586 0 0.2557368)
(-0.04834374 0 -0.3191236)
(0.1051462 0 -0.3054743)
(-0.3173232 0 0.06179078)
(-0.06914422 0 -0.3158424)
(-0.09161633 0 -0.3102575)
(0.2855513 0 -0.1529421)
(0.01624917 0 -0.3245765)
(-0.01274913 0 -0.3252892)
(0.03874775 0 -0.3232867)
(-0.09120999 0 -0.3138403)
(0.06055983 0 -0.3225953)
(-0.06842318 0 -0.3214301)
(-0.08578167 0 0.3177133)
(-0.3171443 0 0.09017994)
(0.1032072 0 0.3134289)
(-0.1144182 0 -0.3098942)
(-0.09070206 0 -0.3183188)
(-0.1141047 0 -0.3127617)
(0.195346 0 -0.2713446)
(-0.1137127 0 -0.3163461)
(-0.09006716 0 -0.3239169)
(0.01432024 0 -0.3369065)
(-0.3169561 0 0.1186238)
(-0.01354857 0 -0.3382257)
(0.03784125 0 -0.3368063)
(-0.2708049 0 0.2041492)
(-0.04192501 0 -0.3371103)
(-0.1132228 0 -0.3208266)
(-0.3403246 0 0.004262497)
(-0.3403123 0 0.007147087)
(-0.3402969 0 0.01075282)
(-0.3402776 0 0.01525999)
(-0.3402536 0 0.02089396)
(-0.1367851 0 -0.3122645)
(0.05993939 0 -0.3363451)
(-0.340197 0 0.0336687)
(-0.06665749 0 -0.33648)
(-0.1364805 0 -0.3151329)
(-0.3401309 0 0.04774727)
(-0.1126103 0 -0.3264272)
(-0.3400618 0 0.06188463)
(-0.1360997 0 -0.3187185)
(-0.08986292 0 -0.3374006)
(-0.3167786 0 0.1470843)
(0.01297593 0 -0.3500436)
(-0.1356238 0 -0.3232004)
(0.1044501 0 -0.3354189)
(-0.1573929 0 -0.3144483)
(-0.01411298 0 -0.3518616)
(-0.1570978 0 -0.3173177)
(-0.04172823 0 -0.3520204)
(0.2856162 0 -0.2112413)
(-0.1350289 0 -0.3288029)
(-0.1567289 0 -0.3209044)
(-0.1126623 0 -0.3391323)
(-0.06649583 0 -0.3516749)
(-0.1562678 0 -0.3253878)
(-0.3630517 0 0.004359547)
(-0.3630393 0 0.007244136)
(-0.3630239 0 0.01084987)
(-0.3630047 0 0.01535704)
(-0.08981306 0 -0.3521141)
(-0.3629806 0 0.02099101)
(0.01227617 0 -0.3639713)
(-0.3629244 0 0.03376627)
(-0.1788313 0 0.3180336)
(-0.1556914 0 -0.3309921)
(-0.3628587 0 0.04784492)
(-0.01443267 0 -0.3659298)
(-0.13538 0 -0.3406658)
(-0.3627865 0 0.06198247)
(0.1939557 0 0.3130978)
(0.05885466 0 -0.3638347)
(-0.0416214 0 -0.3666272)
(-0.1885519 0 -0.3175049)
(-0.112707 0 -0.3530455)
(-0.1882746 0 -0.3203759)
(-0.06639881 0 -0.3664262)
(-0.3626247 0 0.09036081)
(-0.1879278 0 -0.3239646)
(-0.1581544 0 -0.3408119)
(-0.2704897 0 0.2611966)
(0.3759637 0 0.02474033)
(-0.08976114 0 -0.3666469)
(-0.1874944 0 -0.3284505)
(0.103945 0 -0.3638286)
(0.3767179 0 -0.03630343)
(-0.135515 0 -0.3537516)
(-0.2072125 0 -0.3191559)
(-0.3624518 0 0.1187977)
(-0.2069454 0 -0.3220276)
(-0.1869527 0 -0.3340579)
(-0.1127463 0 -0.3670864)
(0.3754681 0 0.08333102)
(-0.2066115 0 -0.3256173)
(-0.3857787 0 0.004456597)
(-0.3857664 0 0.007341186)
(-0.385751 0 0.01094692)
(0.1945907 0 -0.3333202)
(-0.3857318 0 0.01545409)
(-0.3857077 0 0.02108806)
(-0.3856518 0 0.03386225)
(-0.1583837 0 -0.3534699)
(0.3764846 0 -0.09553543)
(-0.3855876 0 0.04793922)
(-0.2061942 0 -0.3301043)
(-0.3855212 0 0.06207427)
(-0.3622695 0 0.1472924)
(-0.1355963 0 -0.3673015)
(0.0112269 0 -0.392408)
(-0.2056726 0 -0.3357132)
(-0.2284575 0 -0.3209301)
(0.2857118 0 -0.2713346)
(-0.1814318 0 -0.35166)
(-0.228196 0 -0.3238021)
(0.05811056 0 -0.3919648)
(-0.04115999 0 -0.3953005)
(-0.227869 0 -0.3273921)
(-0.1584905 0 -0.3670442)
(-0.2274603 0 -0.3318795)
(0.103367 0 -0.3919692)
(-0.08950522 0 -0.395375)
(-0.2042117 0 -0.3506144)
(0.3762862 0 -0.1534779)
(-0.2269494 0 -0.3374889)
(-0.4085058 0 0.004553647)
(-0.4084935 0 0.007438236)
(-0.1814065 0 -0.366091)
(-0.4084781 0 0.01104397)
(-0.4084588 0 0.01555114)
(-0.2509092 0 -0.3228606)
(-0.4084348 0 0.02118511)
(-0.408379 0 0.03395839)
(-0.2506466 0 -0.3257323)
(-0.408315 0 0.04803392)
(-0.4082462 0 0.06216653)
(-0.2503183 0 -0.3293218)
(-0.3618924 0 0.2043908)
(-0.249908 0 -0.3338087)
(-0.2702678 0 0.3180573)
(-0.1356489 0 -0.3953)
(-0.2268531 0 -0.3510443)
(-0.4080961 0 0.09053007)
(-0.2042247 0 -0.3654546)
(0.0102342 0 -0.4209709)
(-0.2493952 0 -0.3394173)
(0.3753557 0 0.1979543)
(-0.2732892 0 -0.3250008)
(-0.4079379 0 0.1189449)
(-0.04130785 0 -0.4238541)
(-0.2730238 0 -0.327872)
(0.009700705 0 0.4289362)
(-0.2726922 0 -0.3314611)
(-0.2269196 0 -0.3657008)
(-0.4312329 0 0.004650697)
(-0.4312205 0 0.007535286)
(-0.4312051 0 0.01114102)
(-0.4311859 0 0.01564819)
(-0.4311618 0 0.02128216)
(-0.2494868 0 -0.3523387)
(0.3762927 0 -0.2116714)
(-0.2722776 0 -0.3359475)
(-0.4311063 0 0.03405469)
(-0.08956294 0 -0.4239832)
(-0.4077817 0 0.147382)
(-0.4310433 0 0.04812913)
(-0.1814252 0 -0.3947401)
(-0.4309786 0 0.06226111)
(-0.2717594 0 -0.3415554)
(0.1935603 0 -0.3917326)
(0.2846352 0 -0.3328938)
(-0.293954 0 -0.3269769)
(-0.2936881 0 -0.3298482)
(-0.2495975 0 -0.3664173)
(-0.2933556 0 -0.3334373)
(-0.1357228 0 -0.4237141)
(-0.2721366 0 -0.3535903)
(-0.3615734 0 0.2614439)
(-0.2929401 0 -0.3379237)
(0.009814806 0 -0.4496115)
(-0.2924206 0 -0.3435317)
(-0.4539599 0 0.004747746)
(-0.4539476 0 0.007632335)
(-0.4539322 0 0.01123807)
(-0.453913 0 0.01574524)
(-0.04126739 0 -0.4523601)
(-0.4538889 0 0.02137921)
(-0.22702 0 -0.3944169)
(-0.4538335 0 0.03415111)
(-0.4537705 0 0.0482244)
(-0.2723099 0 -0.366849)
(-0.4537039 0 0.06235374)
(0.102336 0 -0.4488238)
(-0.2948881 0 -0.3535057)
(-0.1814806 0 -0.4233322)
(-0.08951766 0 -0.4525572)
(-0.453561 0 0.09070813)
(-0.3251772 0 -0.3299627)
(0.3761909 0 -0.2715229)
(-0.3249137 0 -0.3328343)
(-0.1777088 0 0.4315488)
(0.4662368 0 0.02419282)
(-0.3245842 0 -0.3364239)
(-0.2724405 0 -0.3804994)
(0.4671478 0 -0.03678299)
(-0.4534098 0 0.1191164)
(0.1925414 0 0.42758)
(-0.2951172 0 -0.3663388)
(-0.3241724 0 -0.3409109)
(-0.1358095 0 -0.452268)
(0.4656536 0 0.08285773)
(-0.3236576 0 -0.3465196)
(-0.4532483 0 0.1475796)
(-0.476687 0 0.004844796)
(-0.4766747 0 0.007729385)
(-0.4766593 0 0.01133512)
(0.4670778 0 -0.09599258)
(-0.47664 0 0.01584229)
(-0.476616 0 0.02147626)
(-0.3437453 0 -0.3317382)
(-0.4765607 0 0.03424767)
(-0.4764984 0 0.04832038)
(-0.2725189 0 -0.3943828)
(-0.3434852 0 -0.3346105)
(-0.2271104 0 -0.4230149)
(-0.4764348 0 0.06245024)
(-0.2952289 0 -0.3799977)
(-0.36134 0 0.3184008)
(-0.3431601 0 -0.3382008)
(-0.3181071 0 -0.364356)
(0.2837636 0 -0.3917091)
(-0.3427537 0 -0.3426886)
(-0.1815513 0 -0.4519458)
(0.3748043 0 0.3125452)
(-0.3422458 0 -0.3482985)
(0.1929437 0 -0.4489604)
(0.4669552 0 -0.1539262)
(-0.2953013 0 -0.3940522)
(-0.3649507 0 -0.333766)
(-0.3180653 0 -0.3790145)
(-0.3646966 0 -0.3366391)
(-0.4529066 0 0.2046119)
(-0.3407982 0 -0.3633518)
(-0.364379 0 -0.3402303)
(-0.499414 0 0.004941846)
(-0.4994017 0 0.007826435)
(-0.4993863 0 0.01143217)
(-0.4993671 0 0.01593934)
(-0.499343 0 0.0215733)
(-0.4992878 0 0.03434433)
(-0.363982 0 -0.3447194)
(0.374961 0 -0.3328529)
(-0.4992256 0 0.04841615)
(-0.272639 0 -0.4227741)
(-0.4991605 0 0.06254309)
(-0.3634857 0 -0.3503308)
(-0.2272071 0 -0.4516191)
(-0.3180779 0 -0.393526)
(0.009263359 0 -0.5066453)
(-0.499023 0 0.09089004)
(-0.3408 0 -0.3784463)
(-0.3873852 0 -0.3359114)
(0.4669405 0 -0.2120617)
(-0.4988797 0 0.1192849)
(-0.3634091 0 -0.3639131)
(-0.3871392 0 -0.3387849)
(0.1015907 0 -0.5059963)
(-0.3868317 0 -0.3423769)
(-0.08859016 0 -0.509562)
(-0.3864474 0 -0.3468668)
(-0.4987361 0 0.1477033)
(-0.3408323 0 -0.3931456)
(-0.5221411 0 0.005038896)
(-0.5221288 0 0.007923485)
(-0.5221134 0 0.01152922)
(-0.5220942 0 0.01603639)
(-0.5220701 0 0.02167035)
(-0.3859669 0 -0.3524792)
(-0.4526032 0 0.261601)
(-0.522015 0 0.03444115)
(-0.5219533 0 0.04851283)
(-0.3634781 0 -0.3787263)
(-0.5218904 0 0.06264139)
(-0.272735 0 -0.4513673)
(-0.3181631 0 -0.422364)
(-0.4099978 0 -0.3380737)
(-0.3860668 0 -0.365391)
(-0.4097636 0 -0.3409475)
(-0.4094708 0 -0.3445397)
(-0.3635383 0 -0.3933444)
(-0.4091048 0 -0.34903)
(0.466752 0 -0.2717704)
(-0.1815785 0 -0.5092529)
(-0.4086473 0 -0.3546429)
(-0.3861678 0 -0.3796073)
(0.1923513 0 -0.5062301)
(0.3741018 0 -0.3916914)
(0.007989814 0 0.5430264)
(-0.5448682 0 0.005135945)
(-0.5448559 0 0.008020534)
(-0.5448405 0 0.01162627)
(-0.5448212 0 0.01613344)
(-0.5447972 0 0.0217674)
(-0.5447421 0 0.03453806)
(-0.5446804 0 0.04860915)
(-0.5446163 0 0.06273482)
(-0.408759 0 -0.3670801)
(-0.4325181 0 -0.3402272)
(-0.3862582 0 -0.393839)
(-0.4322981 0 -0.3431007)
(-0.5444823 0 0.09107801)
(-0.3182696 0 -0.4510677)
(-0.4523835 0 0.3184212)
(-0.4320231 0 -0.3466926)
(-0.4316793 0 -0.3511825)
(0.5566161 0 0.02374397)
(-0.3636633 0 -0.4222289)
(-0.5443423 0 0.1194719)
(-0.4088885 0 -0.3806418)
(0.5576099 0 -0.03714183)
(-0.4312495 0 -0.3567947)
(0.5559804 0 0.08239533)
(-0.3610318 0 0.432048)
(-0.544194 0 0.1479177)
(0.008216087 0 -0.5640578)
(0.5576483 0 -0.09632234)
(-0.4314787 0 -0.3684486)
(-0.5675952 0 0.005232995)
(-0.5675829 0 0.008117584)
(-0.5675675 0 0.01172332)
(-0.5675483 0 0.01623049)
(-0.5675242 0 0.02186445)
(-0.4090037 0 -0.3944135)
(-0.5674693 0 0.03463512)
(-0.4542556 0 -0.3419388)
(-0.5674079 0 0.04870643)
(-0.4540494 0 -0.3448118)
(-0.5673456 0 0.06283442)
(-0.4537918 0 -0.3484029)
(0.4654827 0 -0.3329424)
(-0.1780237 0 0.5449704)
(-0.08874886 0 -0.5666855)
(-0.4534697 0 -0.3528919)
(0.1908991 0 0.5424277)
(-0.4316515 0 -0.3813317)
(-0.2729112 0 -0.5087382)
(-0.453067 0 -0.3585031)
(0.5575896 0 -0.154255)
(-0.3637766 0 -0.4509474)
(-0.5438802 0 0.2049108)
(-0.4542686 0 -0.3684308)
(-0.4317816 0 -0.3948209)
(-0.4091943 0 -0.4224836)
(0.5558321 0 0.1973285)
(-0.5903223 0 0.005330045)
(-0.59031 0 0.008214634)
(-0.5902946 0 0.01182037)
(-0.5902753 0 0.01632754)
(-0.5902513 0 0.0219615)
(-0.5901964 0 0.03473225)
(-0.590135 0 0.04880324)
(-0.4544937 0 -0.3809694)
(-0.5900717 0 0.06292826)
(-0.1817886 0 -0.5664994)
(-0.4853233 0 -0.3442346)
(-0.4851369 0 -0.3471089)
(0.5575826 0 -0.2123611)
(-0.5899405 0 0.09126845)
(-0.484904 0 -0.3507018)
(-0.4846128 0 -0.355193)
(-0.5898052 0 0.1196546)
(-0.4546232 0 -0.39438)
(-0.5435928 0 0.2618771)
(-0.4842489 0 -0.3608069)
(0.4646684 0 -0.391807)
(-0.5896691 0 0.1480644)
(-0.4093425 0 -0.4509178)
(-0.4774904 0 -0.3790238)
(-0.5030815 0 -0.3450588)
(-0.5029045 0 -0.3479353)
(-0.6130494 0 0.005427095)
(-0.6130371 0 0.008311684)
(-0.6130217 0 0.01191742)
(-0.6130024 0 0.01642459)
(-0.6129784 0 0.02205855)
(-0.5026833 0 -0.3515309)
(-0.6129235 0 0.03482958)
(-0.6128624 0 0.04890111)
(-0.5024068 0 -0.3560255)
(-0.6128005 0 0.06302919)
(-0.4775188 0 -0.3933441)
(-0.5020611 0 -0.3616437)
(0.5573724 0 -0.2719735)
(-0.4547854 0 -0.4223401)
(0.007644577 0 -0.6215157)
(-0.3640028 0 -0.5083422)
(-0.5002792 0 -0.3775625)
(-0.5240974 0 -0.3460342)
(-0.2731242 0 -0.5660213)
(-0.5239304 0 -0.3489126)
(0.3735573 0 -0.5068384)
(-0.5433702 0 0.3187591)
(-0.08874367 0 -0.6238988)
(-0.5237216 0 -0.3525107)
(-0.5234606 0 -0.3570083)
(-0.6357764 0 0.005524144)
(-0.6357641 0 0.008408734)
(-0.5003177 0 -0.3924182)
(-0.6357487 0 0.01201447)
(-0.6357295 0 0.01652164)
(-0.6357054 0 0.0221556)
(-0.5231344 0 -0.3626304)
(-0.6356506 0 0.03492694)
(0.5554256 0 0.3122084)
(-0.6355894 0 0.04899842)
(-0.6355268 0 0.06312366)
(-0.4549177 0 -0.4507722)
(-0.6353974 0 0.09146378)
(-0.5230181 0 -0.376932)
(-0.6352639 0 0.1198527)
(-0.5465918 0 -0.3470781)
(0.6470553 0 0.02346058)
(0.5561225 0 -0.3330077)
(-0.5464361 0 -0.3499581)
(0.6481047 0 -0.03735355)
(0.1910108 0 -0.6210271)
(-0.1818232 0 -0.6238173)
(-0.5462415 0 -0.353558)
(0.6463742 0 0.08213631)
(-0.6351242 0 0.1482906)
(-0.5459982 0 -0.3580579)
(-0.5230813 0 -0.3917818)
(-0.3611789 0 0.5453015)
(-0.5003977 0 -0.4215858)
(0.6482201 0 -0.09650797)
(-0.5456941 0 -0.3636827)
(-0.6585035 0 0.005621194)
(-0.6584912 0 0.008505783)
(-0.6584758 0 0.01211152)
(-0.6584565 0 0.01661869)
(-0.6584325 0 0.02225265)
(-0.6583777 0 0.0350245)
(-0.6583168 0 0.0490968)
(-0.6582552 0 0.06322558)
(-0.5457413 0 -0.3771068)
(0.6482156 0 -0.1544441)
(-0.6348311 0 0.2052623)
(-0.5692598 0 -0.3481302)
(-0.5691141 0 -0.351011)
(-0.568932 0 -0.3546119)
(-0.5458192 0 -0.3918883)
(-0.5687044 0 -0.3591132)
(-0.3642215 0 -0.5656349)
(-0.500508 0 -0.4504155)
(-0.5684198 0 -0.3647397)
(0.5553311 0 -0.3918362)
(-0.2733082 0 -0.6233576)
(-0.6812306 0 0.005718244)
(-0.6812183 0 0.008602833)
(-0.6812029 0 0.01220857)
(-0.6811836 0 0.01671574)
(-0.6811596 0 0.0223497)
(-0.6811048 0 0.03512209)
(-0.4551473 0 -0.5080484)
(0.6482318 0 -0.2125368)
(-0.568483 0 -0.3777888)
(-0.6810438 0 0.04919453)
(-0.6809816 0 0.06332045)
(-0.6345607 0 0.2621963)
(-0.680854 0 0.09166099)
(-0.59196 0 -0.3491837)
(-0.5918206 0 -0.3520649)
(-0.5459245 0 -0.4212933)
(-0.5916465 0 -0.3556664)
(-0.5685599 0 -0.3922474)
(-0.6807235 0 0.1200463)
(-0.5914288 0 -0.3601683)
(-0.5431601 0 0.4322612)
(-0.5911567 0 -0.3657957)
(-0.6805921 0 0.1484555)
(-0.5912124 0 -0.3787034)
(0.6480326 0 -0.272082)
(-0.7039576 0 0.005815294)
(-0.7039453 0 0.008699883)
(-0.7039299 0 0.01230562)
(-0.7039107 0 0.01681279)
(-0.7038866 0 0.02244675)
(-0.7038319 0 0.03521986)
(-0.7037711 0 0.04929347)
(-0.7037097 0 0.06342351)
(-0.6146437 0 -0.3502365)
(-0.5460421 0 -0.4502973)
(-0.6145063 0 -0.3531178)
(-0.5912867 0 -0.3930074)
(-0.6343563 0 0.3189637)
(-0.6143347 0 -0.3567195)
(-0.6141201 0 -0.3612216)
(-0.6138519 0 -0.3668492)
(-0.3644072 0 -0.6230045)
(-0.6139104 0 -0.3796795)
(0.3727985 0 -0.6217264)
(-0.455372 0 -0.565288)
(-0.5914108 0 -0.4217754)
(-0.5461649 0 -0.4791134)
(-0.7266847 0 0.005912344)
(-0.7266724 0 0.008796933)
(-0.726657 0 0.01240267)
(-0.7266377 0 0.01690984)
(-0.7266137 0 0.0225438)
(-0.7265589 0 0.03531764)
(0.6468291 0 -0.3330122)
(-0.6373183 0 -0.3512888)
(-0.7264981 0 0.04939162)
(-0.6371774 0 -0.35417)
(-0.7264363 0 0.06351897)
(-0.6139863 0 -0.3938196)
(-0.6370014 0 -0.3577714)
(-0.7263098 0 0.09186226)
(-0.6367813 0 -0.3622732)
(-0.6365062 0 -0.3679005)
(-0.7261803 0 0.1202533)
(0.006939788 0 -0.7362978)
(0.7375605 0 0.0233118)
(0.7386405 0 -0.03742836)
(-0.7260463 0 0.1486921)
(0.7368448 0 0.08197738)
(-0.6365731 0 -0.3806511)
(-0.5915454 0 -0.4504582)
(0.7388098 0 -0.09655674)
(-0.5462551 0 -0.5077862)
(-0.6599922 0 -0.3523411)
(-0.6366619 0 -0.3945804)
(-0.6598411 0 -0.3552217)
(-0.7494118 0 0.006009393)
(-0.7493995 0 0.008893982)
(-0.7493841 0 0.01249972)
(-0.7493648 0 0.01700689)
(-0.7493407 0 0.02264085)
(-0.749286 0 0.03541389)
(-0.7492254 0 0.04948734)
(-0.6596523 0 -0.3588225)
(-0.7491642 0 0.06361714)
(0.5550593 0 -0.5071958)
(-0.6594163 0 -0.3633235)
(-0.7257678 0 0.2056642)
(0.738849 0 -0.1544976)
(-0.6591213 0 -0.3689497)
(0.6461015 0 -0.3918245)
(0.1900442 0 -0.73594)
(-0.18085 0 -0.7385143)
(-0.5916727 0 -0.4791018)
(-0.6592072 0 -0.3815748)
(0.7365837 0 0.1971232)
(-0.6368327 0 -0.4224934)
(-0.682572 0 -0.3534919)
(-0.6593093 0 -0.3953485)
(0.7388927 0 -0.2125843)
(-0.682412 0 -0.356372)
(-0.54331 0 0.5454999)
(-0.6822119 0 -0.3599721)
(-0.4555707 0 -0.6225998)
(-0.7255088 0 0.2626089)
(-0.7721388 0 0.006106443)
(-0.7721265 0 0.008991032)
(-0.7721111 0 0.01259677)
(-0.7720919 0 0.01710394)
(-0.7720678 0 0.0227379)
(-0.7720131 0 0.03551016)
(-0.6819619 0 -0.3644722)
(-0.7719525 0 0.04958229)
(-0.7718909 0 0.06370746)
(0.5538265 0 0.5422519)
(-0.6816493 0 -0.3700973)
(-0.7717655 0 0.09204534)
(-0.5917877 0 -0.507698)
(-0.6369929 0 -0.4507057)
(-0.7716382 0 0.1204271)
(-0.6818668 0 -0.3822343)
(-0.7715101 0 0.1488326)
(-0.5464628 0 -0.5650075)
(0.7387178 0 -0.2720767)
(-0.6820082 0 -0.3954976)
(-0.7044116 0 -0.3550672)
(-0.704263 0 -0.3579477)
(-0.7040774 0 -0.3615482)
(-0.725304 0 0.3194615)
(-0.1798691 0 0.7719719)
(-0.7038453 0 -0.3660488)
(0.1872145 0 0.7723866)
(-0.7948659 0 0.006203493)
(-0.7948536 0 0.009088082)
(-0.7948382 0 0.01269382)
(-0.7948189 0 0.01720099)
(-0.7947949 0 0.02283495)
(-0.6821273 0 -0.4089953)
(-0.7947402 0 0.03560664)
(-0.7035553 0 -0.3716746)
(-0.7946797 0 0.04967848)
(-0.7946187 0 0.06380656)
(-0.6371324 0 -0.4791273)
(0.7362472 0 0.3121693)
(-0.7046757 0 -0.3819688)
(-0.6822408 0 -0.4226478)
(-0.704861 0 -0.394862)
(0.7375685 0 -0.3329134)
(-0.6372599 0 -0.5076371)
(-0.7049711 0 -0.4084326)
(-0.7354007 0 -0.3573025)
(-0.817593 0 0.006300543)
(-0.8175806 0 0.009185132)
(-0.8175653 0 0.01279087)
(-0.817546 0 0.01729804)
(-0.6824466 0 -0.4506698)
(-0.8175219 0 0.022932)
(-0.8174673 0 0.03570313)
(-0.7352992 0 -0.3601838)
(-0.8174067 0 0.04977387)
(-0.8173454 0 0.06389755)
(-0.7351723 0 -0.3637854)
(-0.7050637 0 -0.4223614)
(-0.7350137 0 -0.3682874)
(-0.8172209 0 0.0922323)
(-0.3644689 0 -0.7380026)
(-0.7348154 0 -0.3739149)
(-0.8170943 0 0.1206134)
(-0.7279458 0 -0.3926538)
(-0.5466516 0 -0.6223204)
(0.8281228 0 0.02328926)
(0.8292207 0 -0.03739474)
(-0.8169644 0 0.1490403)
(0.8273954 0 0.08195713)
(0.5545733 0 -0.6221272)
(-0.7530508 0 -0.3578935)
(-0.6825969 0 -0.4790202)
(-0.7279524 0 -0.4071923)
(0.7368694 0 -0.391702)
(-0.7529616 0 -0.3607738)
(0.8294265 0 -0.09650185)
(-0.7528501 0 -0.3643742)
(-0.7527107 0 -0.3688747)
(-0.84032 0 0.006397592)
(-0.8403077 0 0.009282181)
(-0.8402923 0 0.01288792)
(-0.8402731 0 0.01739509)
(-0.840249 0 0.02302905)
(-0.7525365 0 -0.3745003)
(-0.8401944 0 0.03579982)
(-0.7279967 0 -0.4215604)
(-0.8401339 0 0.04987055)
(-0.8166971 0 0.205983)
(-0.8400731 0 0.06399745)
(0.8294974 0 -0.154448)
(-0.7251113 0 0.4328785)
(-0.750679 0 -0.391084)
(-0.682744 0 -0.5075091)
(-0.6375087 0 -0.5647532)
(0.00619123 0 -0.8516696)
(-0.7741883 0 -0.357898)
(-0.7507497 0 -0.4060645)
(-0.7740726 0 -0.3607758)
(-0.7739281 0 -0.3643729)
(-0.7280983 0 -0.4501255)
(0.8295643 0 -0.2125327)
(-0.7737473 0 -0.3688693)
(-0.8164494 0 0.2628819)
(-0.7735214 0 -0.3744899)
(-0.7508015 0 -0.4207119)
(-0.8630471 0 0.006494642)
(-0.8630348 0 0.009379231)
(-0.8630194 0 0.01298497)
(-0.8630001 0 0.01749214)
(-0.8629761 0 0.0231261)
(-0.8629214 0 0.03589653)
(-0.862861 0 0.04996639)
(-0.8627999 0 0.06408901)
(-0.7733115 0 -0.3900764)
(-0.8626762 0 0.09242091)
(-0.862551 0 0.1207957)
(-0.7282172 0 -0.4787094)
(0.1893235 0 -0.8513021)
(-0.1806338 0 -0.8535911)
(0.8294134 0 -0.2719841)
(-0.7733723 0 -0.4052518)
(-0.796674 0 -0.3593784)
(-0.7965159 0 -0.3622536)
(-0.8624253 0 0.149194)
(-0.7963183 0 -0.3658477)
(-0.8162596 0 0.3196046)
(-0.7960713 0 -0.3703403)
(-0.7957625 0 -0.3759561)
(-0.7734208 0 -0.420128)
(-0.8857742 0 0.006591692)
(-0.8857618 0 0.009476281)
(-0.8857464 0 0.01308202)
(-0.8857272 0 0.01758919)
(-0.8857031 0 0.02322315)
(-0.7958433 0 -0.3900495)
(-0.8856485 0 0.03599344)
(-0.8855882 0 0.0500636)
(-0.7283337 0 -0.507297)
(-0.8855274 0 0.06418986)
(-0.6377171 0 -0.6220052)
(0.828315 0 -0.3327463)
(-0.7959056 0 -0.4049826)
(0.7367553 0 -0.5071462)
(-0.7735025 0 -0.4493748)
(-0.8193479 0 -0.3610034)
(-0.8191696 0 -0.363877)
(-0.8189466 0 -0.3674691)
(-0.8186679 0 -0.3719591)
(-0.7959685 0 -0.4197221)
(-0.8183196 0 -0.3775717)
(-0.818416 0 -0.3907131)
(-0.7252633 0 0.5458484)
(-0.9085012 0 0.006688742)
(-0.9084889 0 0.009573331)
(-0.9084735 0 0.01317907)
(-0.9084543 0 0.01768624)
(-0.9084302 0 0.0233202)
(-0.9083756 0 0.03609039)
(-0.77361 0 -0.4782754)
(-0.9083152 0 0.05015994)
(-0.9082543 0 0.06428222)
(-0.9081312 0 0.09261348)
(-0.8185021 0 -0.4052654)
(0.8276756 0 -0.3915123)
(-0.9080066 0 0.1209905)
(-0.8419874 0 -0.3626259)
(-0.8418221 0 -0.3654994)
(-0.5468517 0 -0.7373136)
(-0.8416154 0 -0.3690912)
(0.9187531 0 0.02331508)
(-0.8185789 0 -0.4198871)
(-0.9078798 0 0.1494123)
(-0.841357 0 -0.373581)
(0.9198516 0 -0.03731522)
(-0.7285653 0 -0.5644769)
(0.9180109 0 0.08198087)
(-0.841034 0 -0.3791933)
(-0.7737269 0 -0.5069838)
(0.9200756 0 -0.09640243)
(-0.3643124 0 -0.8532283)
(-0.8411535 0 -0.3918361)
(-0.9076209 0 0.2063439)
(-0.9312283 0 0.006785791)
(-0.931216 0 0.009670381)
(-0.9312006 0 0.01327612)
(-0.9311813 0 0.01778329)
(-0.9311573 0 0.02341725)
(-0.9311027 0 0.03618753)
(-0.9310424 0 0.05025764)
(0.9201638 0 -0.1543533)
(-0.9309818 0 0.06438383)
(-0.8187623 0 -0.4491008)
(-0.8412494 0 -0.4059116)
(-0.8646728 0 -0.3642518)
(0.9177033 0 0.1972461)
(-0.8645408 0 -0.3671242)
(-0.8413348 0 -0.4201814)
(-0.8643758 0 -0.3707148)
(-0.8641695 0 -0.375203)
(-0.8639116 0 -0.3808132)
(0.9202438 0 -0.2124374)
(-0.5443069 0 0.7720361)
(-0.9073806 0 0.2632379)
(-0.8188908 0 -0.4780586)
(-0.8640064 0 -0.3930583)
(0.5520554 0 0.7728597)
(-0.9539554 0 0.006882841)
(-0.953943 0 0.00976743)
(-0.9539276 0 0.01337317)
(-0.9539084 0 0.01788034)
(-0.9538843 0 0.0235143)
(-0.9538297 0 0.03628468)
(-0.8641007 0 -0.4067046)
(-0.9537695 0 0.05035448)
(-0.9537087 0 0.06447683)
(-0.7287634 0 -0.6217502)
(-0.9535862 0 0.09280776)
(0.9201085 0 -0.2718537)
(-0.8873809 0 -0.3652866)
(-0.8872791 0 -0.3681558)
(-0.9534627 0 0.1211813)
(-0.8641848 0 -0.4207268)
(-0.8871518 0 -0.3717423)
(-0.9071911 0 0.3200252)
(-0.8190292 0 -0.5068344)
(-0.8869927 0 -0.3762254)
(0.7364508 0 -0.6221573)
(-0.9533388 0 0.1495781)
(-0.8867939 0 -0.3818293)
(0.917437 0 0.3123877)
(-0.886866 0 -0.3939349)
(-0.864344 0 -0.4493742)
(-0.8869529 0 -0.4073852)
(-0.9766824 0 0.006979891)
(-0.9766701 0 0.00986448)
(-0.9766547 0 0.01347022)
(-0.9766355 0 0.01797739)
(-0.9766114 0 0.02361135)
(-0.9765568 0 0.03638207)
(0.9190478 0 -0.3325477)
(-0.9764966 0 0.05045266)
(-0.9764361 0 0.06457933)
(-0.910084 0 -0.3659416)
(-0.9099971 0 -0.3688086)
(-0.8870315 0 -0.4212446)
(-0.9098884 0 -0.3723925)
(-0.9097526 0 -0.3768724)