
5490
(
(2.681682 0 -0.3284261)
(3.351627 -3.510652e-019 -0.8487507)
(2.682588 1.026113e-019 -1.134029)
(1.160826 3.527814e-019 1.016122)
(0.8554177 0 1.145771)
(1.184215 -1.488532e-017 -0.0986246)
(1.790037 -5.668522e-018 -0.864986)
(2.906114 -3.443638e-020 -1.115816)
(2.216193 0 -1.32283)
(3.101368 -1.923706e-018 -1.132704)
(3.638903 0 -0.2303192)
(0.03961069 1.662284e-017 2.624941)
(-0.003433975 0 2.009506)
(4.873528 0 -0.1622766)
(0.2300518 1.51115e-017 1.480486)
(3.344166 0 -0.3006453)
(3.371636 0 -0.0716621)
(0.6346628 -5.79635e-018 0.1300404)
(3.215777 -6.147732e-018 -0.3983175)
(1.062571 -1.34651e-019 -0.9268637)
(3.004118 8.150664e-018 -0.4944394)
(3.081754 4.098488e-018 -0.917336)
(-0.03296703 0 1.374868)
(-0.07721058 -1.585732e-017 1.907034)
(-0.1600585 -2.372439e-018 1.393545)
(-0.1069984 0 0.5311664)
(2.238982 0 -1.719033)
(0.1833264 9.151145e-018 -0.5067402)
(1.352687 5.877471e-020 -1.681526)
(2.821886 -2.7717e-018 -1.489965)
(3.756241 -9.569224e-021 -0.05725661)
(2.648758 0 -0.02218715)
(2.926314 -1.883035e-018 -0.09773638)
(2.887973 -3.678334e-018 -0.1435107)
(2.866273 0 -0.2016281)
(2.830219 0 -0.8284293)
(2.822014 7.409909e-019 -0.5270553)
(2.865549 5.039368e-018 -1.220616)
(-0.0428385 0 1.12343)
(-0.1140669 0 1.548048)
(-0.2303659 0 1.093578)
(-0.3086125 0 0.4901553)
(0.6167162 9.151145e-018 -1.480646)
(2.808562 -1.501852e-019 -0.2754008)
(-0.2110826 -1.174641e-017 -0.2295012)
(2.698409 0 -1.06607)
(2.686303 -2.536254e-021 -0.7511125)
(1.968163 0 -1.751452)
(2.70566 -1.782891e-018 -0.5332834)
(2.722138 0 -0.3330398)
(0.1628656 -1.763191e-017 -1.186792)
(1.370098 7.491919e-018 -1.834272)
(2.483296 0 -1.554902)
(-0.0423555 0 0.7594416)
(-0.1127166 -7.330901e-018 1.030846)
(-0.2151207 1.390685e-017 0.6948512)
(-0.3005418 7.228128e-020 0.2672806)
(-0.3032812 1.105632e-017 -0.2041031)
(2.597182 0 -0.01098787)
(3.646185 -1.623792e-018 -0.02419748)
(2.772525 -8.652968e-020 -0.04142166)
(2.724815 0 -0.0690344)
(2.51607 0 -1.319738)
(2.596965 0 -0.9349487)
(2.708874 0 -0.1069713)
(0.8592411 2.390955e-018 -1.766529)
(2.648582 0 -0.3708065)
(2.678602 0 -0.1613354)
(-0.06955341 -5.825109e-018 -0.9475462)
(2.517943 -2.438458e-018 -1.136722)
(0.4641153 0 -1.618477)
(-0.0321279 0 0.4399557)
(-0.08872993 -7.166748e-018 0.5729443)
(-0.1679148 -7.071202e-018 0.3328174)
(-0.2414099 0 0.04606941)
(-0.2823973 0 -0.2591952)
(2.631658 0 -0.2132621)
(2.426702 0 -1.00285)
(-0.1520692 0 -0.7974995)
(2.512049 2.14916e-018 -0.6442784)
(0.2990525 1.647355e-017 -1.454194)
(2.590283 0 -0.2500728)
(2.560041 0 -0.009470525)
(3.549657 -1.149519e-020 -0.0188654)
(2.648859 -2.191705e-021 -0.02861339)
(2.60355 3.743297e-020 -0.04574146)
(2.59492 -2.494118e-018 -0.07054127)
(-0.02003099 0 0.1898063)
(-0.06250449 -7.968215e-018 0.2097166)
(-0.121572 -7.321949e-018 0.0379095)
(-0.1798423 -7.196867e-018 -0.152145)
(-0.2311141 -1.441616e-017 -0.3520306)
(2.579463 -1.099335e-018 -0.1090152)
(2.534673 0 -0.397827)
(0.1187529 -6.089264e-018 -1.222228)
(-0.1670938 -1.435013e-017 -0.7247247)
(2.55377 0 -0.1507098)
(2.357924 0 -0.8148234)
(1.571411 -1.97996e-017 -1.582422)
(-0.009994213 0 0.01532926)
(-0.04218019 0 -0.05105651)
(-0.08661078 0 -0.1886272)
(2.52916 6.964156e-021 -0.1862289)
(-0.1297193 0 -0.3211698)
(-0.1768652 -7.986572e-018 -0.455227)
(1.933827 0 -1.264697)
(0.003166473 0 -1.129528)
(1.011392 0 -1.66718)
(2.545384 0 -0.008477491)
(3.496153 0 -0.01558494)
(2.568114 0 -0.0214139)
(2.521852 0 -0.03321621)
(-0.146097 0 -0.7295524)
(2.515425 -2.19867e-018 -0.05059376)
(2.398464 0 -0.5540463)
(2.505853 3.967328e-020 -0.07842537)
(2.141923 0 -1.018797)
(2.490216 0 -0.1098917)
(-0.003253991 0 -0.1118796)
(-0.02814729 0 -0.2499701)
(-0.06113055 -8.694104e-018 -0.3727614)
(-0.08956155 -8.652865e-018 -0.4637154)
(-0.1148966 0 -1.021303)
(0.6527512 0 -1.637748)
(-0.1191469 3.710041e-017 -0.5493714)
(2.431047 0 -0.3847041)
(2.472458 2.457762e-018 -0.2340764)
(-0.08146264 0 -0.7596979)
(2.475259 2.178371e-018 -0.1363373)
(2.285636 7.896863e-018 -0.6775902)
(2.539965 0 -0.007850864)
(2.122153 0 -0.8426979)
(3.461664 0 -0.0135459)
(0.03437129 -9.826316e-018 -1.073441)
(2.507904 0 -0.01699602)
(2.460602 0 -0.02564452)
(0.0005230172 0 -0.2114443)
(-0.01927734 1.935788e-017 -0.4086651)
(-0.04360493 0 -0.5212645)
(-0.05991384 1.925777e-017 -0.5766504)
(2.455385 2.009272e-018 -0.03860539)
(-0.06808358 9.748407e-020 -0.6183674)
(2.448973 4.018644e-018 -0.05991372)
(0.3494403 2.191673e-017 -1.50556)
(0.01134615 -1.544346e-017 -0.7522685)
(2.439129 -9.928043e-019 -0.08511657)
(2.306122 -2.874681e-018 -0.4854457)
(2.400129 0 -0.2535337)
(2.430084 0 -0.1087847)
(0.192868 -3.386655e-017 -0.9872133)
(0.001950292 0 -0.2963707)
(-0.01450422 -3.280726e-019 -0.5447464)
(-0.03298645 -1.615611e-019 -0.6476185)
(-0.0434216 0 -0.6715876)
(2.348372 -2.448891e-018 -0.3657714)
(-0.03789085 -1.544346e-017 -0.6772952)
(2.225976 0 -0.5819262)
(2.15068 7.593368e-018 -0.7094103)
(0.005727211 -1.544346e-017 -0.7394524)
(2.541247 0 -0.007393885)
(3.439808 -2.864756e-020 -0.01205073)
(2.460985 -8.696514e-019 -0.01382652)
(2.412541 0 -0.02038298)
(2.407984 0 -0.03036075)
(0.3055318 1.966073e-017 -1.439796)
(2.403236 0 -0.04692953)
(2.401692 0 -0.1469877)
(0.1290721 0 -0.9831218)
(2.396292 0 -0.06688016)
(0.002249646 0 -0.3703613)
(-0.008606648 0 -0.6608837)
(-0.01284977 0 -0.7527099)
(-0.009615097 0 -0.7500797)
(0.02376906 -8.89141e-022 -0.7297985)
(2.389807 0 -0.08506292)
(0.1125001 0 -0.7451099)
(2.337677 0 -0.2609082)
(0.1387958 0 -0.8940766)
(2.098815 0 -0.602804)
(2.35721 3.867704e-018 -0.1697731)
(-0.0002979733 0 -0.4352499)
(-0.005197592 -2.437198e-017 -0.736681)
(0.01575794 2.416255e-017 -0.8015016)
(0.04732688 -2.473857e-017 -0.7813232)
(0.132897 -5.419897e-018 -0.7414587)
(2.547371 0 -0.007077405)
(3.42687 0 -0.01096148)
(2.423375 0 -0.01144142)
(2.373731 2.683013e-020 -0.01654542)
(2.369549 -1.716474e-018 -0.024561)
(0.2900904 -5.683381e-019 -0.748314)
(0.6374094 0 -1.222355)
(2.365854 -1.709375e-018 -0.03778133)
(2.360937 0 -0.05399475)
(0.444715 8.682935e-018 -0.8478711)
(2.356929 -1.706399e-018 -0.06981978)
(0.02100274 0 -0.5382017)
(-0.005717953 -1.883169e-022 -0.8089872)
(0.01958334 0 -0.7762202)
(0.07390109 0 -0.7235218)
(0.1699665 2.142054e-019 -0.6953542)
(1.492232 2.217768e-017 -0.8902614)
(0.1682811 0 -0.748093)
(2.317999 0 -0.1808035)
(1.03909 2.290128e-017 -1.096455)
(2.203607 -5.749079e-018 -0.3813546)
(2.341571 -2.237692e-018 -0.09795612)
(0.2732978 -5.016216e-017 -0.7500926)
(2.55721 0 -0.006822169)
(3.420558 0 -0.01018949)
(2.392532 0 -0.009730436)
(2.341617 0 -0.01368062)
(2.337629 -8.015782e-019 -0.02023344)
(2.334643 2.709451e-020 -0.03085525)
(0.9159878 0 -0.8400943)
(0.05052763 0 -0.5053333)
(0.03098489 -2.547766e-017 -0.7426593)
(0.05428581 0 -0.6829626)
(0.1096761 0 -0.6151485)
(2.330907 -8.369458e-019 -0.04398352)
(0.1760674 -2.349867e-019 -0.6013545)
(0.2623589 0 -0.6803259)
(2.327475 0 -0.05614662)
(1.773748 -6.847017e-018 -0.695081)
(2.313853 -1.621118e-018 -0.1182906)
(0.9901509 1.721984e-019 -1.076128)
(0.5419881 8.087319e-018 -0.6557289)
(2.251768 0 -0.2480952)
(0.0442769 0 -0.3288029)
(0.05467953 0 -0.5318096)
(0.08712596 0 -0.5484355)
(0.1367675 0 -0.5194315)
(0.2080114 -1.996621e-021 -0.5027516)
(2.083674 -1.218741e-017 -0.4552562)
(0.4929593 -1.597297e-020 -0.5365707)
(2.569969 0 -0.006614611)
(3.419336 0 -0.009652198)
(2.36677 1.545074e-018 -0.008552478)
(2.314513 1.523607e-018 -0.01157082)
(2.310634 0 -0.01699165)
(2.308182 1.5222e-018 -0.02570674)
(2.305416 0 -0.03662869)
(0.7852753 0 -0.5324616)
(2.286917 0 -0.1323618)
(1.337286 0 -0.4731758)
(2.303263 2.985819e-018 -0.04741113)
(0.02423073 0 -0.2226981)
(0.02278942 8.122822e-020 -0.3840543)
(0.04647698 7.43051e-019 -0.4255274)
(0.08631966 1.852201e-018 -0.4155043)
(0.1759654 -4.723367e-019 -0.3789954)
(0.4626067 0 -0.3387747)
(1.921001 0 -0.5523218)
(2.293974 0 -0.06719752)
(0.7847574 0 -0.315808)
(1.467229 1.285219e-018 -0.6282354)
(2.585037 0 -0.006462581)
(3.422118 2.298456e-020 -0.009221795)
(2.344978 1.39564e-018 -0.007581295)
(2.291312 -7.206871e-019 -0.009870286)
(2.287485 0 -0.01440002)
(2.285395 0 -0.02154769)
(-0.005451945 0 -0.1817702)
(-0.03942697 0 -0.3087317)
(-0.05166271 -1.254991e-018 -0.3229082)
(-0.03275176 -1.219935e-018 -0.2753951)
(2.283163 -2.873693e-021 -0.03057784)
(0.09099467 0 -0.1657723)
(2.276226 0 -0.08271097)
(0.4327225 0 -0.05716415)
(2.281139 0 -0.03923838)
(2.152265 0 -0.3019991)
(0.7084185 -5.077228e-019 -0.07152321)
(1.221532 -2.097676e-018 -0.2592251)
(-0.01890095 0 -0.4810848)
(-0.0552119 7.271694e-019 -0.7073985)
(-0.04924562 1.44937e-019 -0.4978166)
(0.04054849 -1.238371e-018 -0.1756195)
(2.258686 -1.414374e-018 -0.09318459)
(0.2245377 -4.147024e-019 0.1039353)
(2.238566 -6.207449e-018 -0.1434841)
(2.601983 0 -0.006351404)
(3.428098 0 -0.008882208)
(2.326345 1.418016e-018 -0.006783388)
(2.271259 -1.709407e-025 -0.00847848)
(0.5391236 0 0.2414234)
(2.267454 0 -0.01229947)
(2.265645 1.439354e-019 -0.01820375)
(2.193198 -2.469296e-018 -0.2156199)
(2.263884 8.98029e-023 -0.02571924)
(2.067953 0 -0.3541416)
(0.8348132 -5.305944e-019 0.1666058)
(1.948648 0 -0.4180657)
(2.262566 0 -0.03327754)
(0.06480914 0 -0.4109399)
(0.1515832 0 -0.4647309)
(0.3113691 0 -0.09724747)
(0.5511504 0 0.2722561)
(2.256598 -4.115302e-018 -0.04748329)
(1.459253 2.192179e-017 -0.5370069)
(1.701889 -1.182374e-018 -0.2308392)
(0.7483468 1.316744e-018 0.4747752)
(1.184859 0 -0.5839987)
(0.8910971 2.633488e-018 0.4785237)
(1.301581 -1.293764e-018 0.04395563)
(2.620465 0 -0.006274472)
(3.436646 0 -0.00861534)
(2.310221 0 -0.006122936)
(1.017615 0 0.3938237)
(2.253735 0 -0.00731596)
(2.249948 0 -0.01054107)
(2.244851 0 -0.05944736)
(2.248363 0 -0.01542013)
(0.4480142 0 0.06337417)
(1.647108 0 -0.4791784)
(2.246905 0 -0.02166159)
(0.9435308 9.145262e-019 0.245029)
(0.6097435 0 0.07975009)
(2.245522 -5.277993e-021 -0.02764755)
(1.29666 -6.025187e-018 0.4601281)
(1.370434 -1.025819e-020 -0.4227107)
(1.424121 0 0.1925793)
(1.512634 3.392727e-018 0.5549366)
(1.940386 0 0.2768127)
(0.3932964 0 0.04699705)
(1.670339 2.740643e-018 0.5043721)
(2.23285 -2.157699e-020 -0.06930501)
(2.100562 0 0.3131238)
(1.082634 1.386181e-018 0.1325424)
(1.556034 1.064361e-020 0.4740469)
(0.396327 0 0.04602925)
(1.501597 0 0.3920874)
(1.695878 1.057612e-018 0.2123521)
(2.080881 -1.281628e-018 0.3168724)
(2.11083 -1.659025e-023 -0.2450185)
(1.064239 0 0.1251206)
(2.192361 4.16426e-022 -0.1380723)
(1.952612 1.208043e-018 0.2480602)
(2.640204 0 -0.006225075)
(3.447302 0 -0.008402191)
(2.296149 0 -0.005566143)
(2.238264 0 -0.006356177)
(2.234495 1.317454e-018 -0.009108149)
(1.676461 0 0.199229)
(2.233099 -2.566549e-021 -0.01315951)
(0.3749262 0 0.04319252)
(2.231919 -1.332172e-018 -0.0183912)
(1.98845 -1.508832e-021 -0.3422163)
(2.015718 0 0.2608098)
(1.50765 0 0.2417403)
(2.230985 0 -0.02366599)
(1.943783 0 0.2321224)
(1.040184 1.170867e-018 0.1203963)
(1.790436 0 -0.200862)
(1.999432 0 0.3466798)
(2.026593 -2.3802e-018 0.300453)
(1.917742 0 0.3676716)
(1.656166 0 0.1921675)
(1.836333 2.770811e-021 0.348243)
(2.012432 -1.562254e-018 0.239926)
(2.147494 0 -0.1890721)
(2.226745 2.5916e-018 -0.03359829)
(2.052514 0 -0.2849665)
(0.3614795 0 0.04017271)
(1.933533 -2.316232e-018 0.2237801)
(1.019881 1.560191e-018 0.1138409)
(1.685714 4.829929e-018 -0.0526454)
(1.640997 -8.852093e-019 0.1834788)
(2.008388 0 0.2302338)
(1.969551 -2.979322e-019 0.3116567)
(2.218465 0 -0.04223997)
(2.006254 0 0.2835859)
(1.91079 0 0.3312855)
(2.20643 -5.057107e-022 -0.08146233)
(2.020623 -6.444827e-019 0.2564348)
(1.927368 -2.878703e-018 0.2146594)
(2.661004 0 -0.006198161)
(3.459741 3.603928e-018 -0.008230821)
(2.28381 2.020533e-020 -0.005080976)
(2.224514 -6.391912e-019 -0.005535049)
(2.220745 0 -0.007894112)
(0.3525948 0 0.0380585)
(1.843219 -1.062646e-018 0.2981613)
(2.21948 0 -0.0112171)
(2.024063 0 0.237883)
(0.998219 1.271708e-018 0.1081116)
(2.21845 0 -0.01553894)
(2.006422 0 0.2209942)
(2.217451 0 -0.01980487)
(1.624995 1.84696e-018 0.1762284)
(2.023361 -1.215165e-018 0.2265902)
(2.209949 0 -0.04907156)
(1.966343 1.863595e-021 0.2797397)
(1.921641 -3.299547e-018 0.2074202)
(1.763946 0 0.1965822)
(0.3373303 0 0.03560525)
(1.993747 0 0.2656533)
(0.9855239 5.619525e-023 0.104119)
(2.010251 -1.012006e-020 0.2443525)
(1.85437 -2.364747e-018 -0.1457545)
(2.005245 0 0.2138388)
(1.615719 -3.711015e-018 0.170723)
(2.023181 0 0.2173422)
(2.017905 -1.34015e-018 0.2287527)
(1.919725 -3.8328e-018 0.2017205)
(2.682684 0 -0.006185485)
(3.473681 0 -0.008094251)
(2.272939 0 -0.004667953)
(2.21222 -1.996259e-020 -0.004828127)
(2.021197 -1.217136e-018 0.218272)
(2.208451 -8.473081e-027 -0.0068458)
(1.952808 0 0.2538932)
(2.207291 -1.883279e-018 -0.009553759)
(2.152122 -6.624963e-019 -0.1292313)
(2.007909 -1.160744e-018 0.2080077)
(2.206406 0 -0.01308591)
(1.984071 0 0.2450611)
(2.023733 4.785038e-018 0.2101807)
(2.205702 1.925359e-023 -0.01672387)
(1.986316 0 -0.2670957)
(1.884801 0 0.2283205)
(1.999771 0 0.2300568)
(0.3352735 0 0.03234346)
(2.023511 0 0.2096989)
(0.9702383 -2.870779e-019 0.09421912)
(2.010144 0 0.2177708)
(2.202604 1.275483e-018 -0.02364555)
(1.604005 -2.492981e-019 0.1565379)
(2.025298 1.636833e-020 0.2041353)
(2.175675 0 -0.08398468)
(1.532435 0 -0.321269)
(2.015397 0 0.208637)
(1.916883 1.471566e-018 0.186983)
(1.844586 -3.456478e-018 0.1730634)
(1.394346 -9.153139e-018 -0.2998863)
(2.025846 0 0.2028362)
(0.3345386 0 0.03015985)
(2.196614 0 -0.02982307)
(0.9514995 0 0.08724857)
(2.011453 0 0.195018)
(2.019761 0 0.2009123)
(1.663352 1.255308e-017 -0.3223785)
(1.587786 0 0.147351)
(2.705121 0 -0.00618221)
(3.488882 0 -0.007986045)
(2.263293 0 -0.004315792)
(1.779084 -3.435382e-020 0.05540103)
(2.201161 0 -0.004215847)
(2.197405 2.524597e-018 -0.005925523)
(2.196326 -6.311493e-019 -0.008097094)
(2.028333 -2.618933e-019 0.1968535)
(1.616005 -4.57657e-018 -0.2028339)
(2.195523 1.016883e-020 -0.01095267)
(1.908512 0 0.1779108)
(2.194741 -1.258607e-018 -0.01376439)
(2.19053 3.078593e-022 -0.03541809)
(2.022884 0 0.1947387)
(1.950378 -4.47851e-018 0.2078658)
(2.00476 -2.059489e-018 0.1862486)
(0.3119911 0 0.0278694)
(1.832754 0 -0.06144556)
(2.029588 0 0.1908124)
(0.9220685 4.312195e-019 0.08428029)
(1.903582 0 0.1910775)
(1.986363 0 0.2029984)
(1.560584 5.355512e-019 0.1446208)
(2.025988 2.364394e-018 0.189292)
(1.892986 -7.976255e-019 0.1759231)
(1.87312 0 0.1409391)
(2.005434 0 0.1881774)
(2.027928 0 0.1850717)
(1.925301 2.175431e-018 -0.1039738)
(1.998404 2.497973e-018 0.1843164)
(2.728201 0 -0.006191422)
(3.50513 -3.12282e-025 -0.007902952)
(2.027757 2.370198e-018 0.183744)
(2.254655 -6.421218e-019 -0.00401232)
(2.191135 1.260539e-018 -0.003683284)
(0.2972876 0 0.02789975)
(2.18739 0 -0.005121346)
(2.186377 2.472052e-021 -0.006850521)
(0.8955929 1.206851e-018 0.08531457)
(2.185664 0 -0.00916074)
(2.185096 0 -0.01154366)
(1.535323 2.750542e-018 0.146961)
(2.175245 -1.751377e-020 -0.04383938)
(1.879391 0 0.178791)
(2.148116 0 -0.08114488)
(2.015952 0 0.1771831)
(2.025007 2.105415e-021 0.1826488)
(2.182683 0 -0.01604908)
(2.028312 0 0.179065)
(1.956295 -1.795207e-018 0.1751309)
(1.99347 0 0.1861229)
(1.820677 0 -0.2524421)
(0.2909751 0 0.02810959)
(2.178131 0 -0.02012012)
(1.981183 7.849022e-021 0.1757461)
(0.8777778 1.206851e-018 0.08545217)
(2.060057 2.779674e-018 -0.1684589)
(1.519468 1.547378e-018 0.1475686)
(2.027904 0 0.1762876)
(2.751825 0 -0.006212266)
(3.522296 4.097895e-020 -0.007836338)
(2.246911 -6.239058e-019 -0.003734889)
(2.181999 1.974927e-020 -0.003197245)
(2.178246 0 -0.004394922)
(2.023594 6.356468e-018 0.1826281)
(1.934358 0 -0.08851902)
(1.872617 -1.163867e-018 0.1797376)
(2.177275 0 -0.005742942)
(1.999529 0 0.1671907)
(2.1733 1.094611e-021 -0.02345722)
(2.176608 0 -0.007550253)
(2.022284 -2.727267e-018 0.1680985)
(2.175987 0 -0.00936567)
(1.992096 3.454194e-018 0.1866925)
(1.867947 1.196807e-019 0.05669749)
(1.864292 0 0.0002916681)
(0.2767995 0 0.02678423)
(0.8642481 0 0.08411877)
(2.02829 -2.575251e-021 0.1749331)
(1.508556 0 0.1461528)
(2.010651 0 0.1596154)
(2.024027 0 0.1824936)
(2.154744 0 -0.04762722)
(1.869058 0 0.1787387)
(1.95409 0 0.1471686)
(1.995217 -3.515862e-018 0.1857268)
(2.775917 0 -0.006239372)
(3.540286 -2.055803e-020 -0.007785023)
(2.239983 0 -0.003483509)
(2.173647 0 -0.00275249)
(1.978955 0 0.1527639)
(2.169872 1.25895e-018 -0.003732852)
(2.026293 0 0.1607961)
(2.168934 -1.006941e-020 -0.004738478)
(2.168323 0 -0.006093338)
(2.030259 -1.389893e-018 0.1739592)
(2.167852 -1.253593e-018 -0.007505178)
(1.91614 0 0.1085153)
(2.024835 0 0.1822078)
(2.017921 -1.707218e-022 0.1523755)
(1.99473 0 0.148302)
(2.165967 -1.875873e-018 -0.01023186)
(0.2721736 0 0.02610432)
(1.914833 1.648417e-018 -0.05090868)
(0.8454922 1.890217e-018 0.08144744)
(2.096056 0 -0.1049816)
(1.626687 0 -0.1931545)
(1.493587 -7.735956e-018 0.1430855)
(2.031609 2.81668e-022 0.1637931)
(1.557908 1.0224e-023 -0.1550298)
(2.162464 0 -0.01270319)
(2.013525 0 -0.180542)
(2.032418 0 0.1732363)
(1.865111 3.436244e-018 0.1760368)
(2.006055 2.942209e-021 0.1437609)
(1.701977 0 -0.2058985)
(2.000392 0 0.1822717)
(2.158838 -2.302366e-018 -0.01505476)
(2.80043 0 -0.006267992)
(3.558978 0 -0.007745823)
(2.233735 0 -0.003261801)
(1.74571 0 -0.09676748)
(2.165972 0 -0.002356386)
(2.162168 2.469721e-021 -0.003141358)
(0.2737417 0 0.02569364)
(2.161265 0 -0.003832102)
(2.160709 0 -0.004779962)
(2.030451 -1.350882e-018 0.1557262)
(0.8345403 -3.999387e-019 0.07870201)
(2.023204 0 0.1461296)
(2.160184 1.253158e-018 -0.005711267)
(2.033785 0 0.1628252)
(2.134115 3.308657e-018 -0.04871513)
(1.48516 -3.980859e-018 0.139379)
(2.033917 4.960822e-019 0.1733963)
(1.899981 0 0.01134839)
(1.863327 2.521802e-018 0.1722757)
(2.013363 0 0.1378382)
(1.897367 -1.143728e-017 -0.1876991)
(1.997198 -3.19846e-018 0.1790227)
(1.908662 0 0.06843297)
(1.969809 0 -0.05815024)
(2.033045 -2.441907e-018 0.154029)
(0.2602324 0 0.02377986)
(2.036733 -1.377517e-018 0.1620001)
(0.8206126 0 0.07537073)
(2.148935 0 -0.0190337)
(2.036106 -1.601895e-018 0.171816)
(1.47386 0 0.1347668)
(2.825314 0 -0.006304232)
(3.578269 0 -0.007720981)
(2.228062 0 -0.003064888)
(2.158887 0 -0.002004907)
(2.15505 -6.351859e-019 -0.002618701)
(2.154178 -6.376803e-019 -0.003039928)
(1.859901 0 0.1676159)
(1.920629 -8.165462e-019 -0.01578797)
(2.153689 -1.25611e-018 -0.003643565)
(2.027911 -1.890818e-018 0.1410936)
(2.153284 0 -0.004269452)
(2.000148 0 0.1748618)
(2.019568 0 0.1328736)
(2.035936 0 0.1523317)
(1.965715 -4.275815e-018 0.1099256)
(2.151697 0 -0.005490004)
(2.040152 2.767156e-021 0.1605614)
(0.2522837 0 0.02271615)
(1.969446 0 -0.0538393)
(2.148829 -4.887198e-021 -0.006557725)
(2.039236 -3.324993e-018 0.1684346)
(0.8073981 0 0.07273646)
(1.94013 0 0.08543875)
(1.461846 0 0.1306628)
(1.989924 -3.322502e-018 0.1170249)
(1.855972 0 0.163)
(2.14573 0 -0.007463938)
(2.039188 4.145775e-021 0.1507782)
(2.850509 0 -0.006349634)
(3.598099 -9.672555e-019 -0.007707086)
(2.22292 2.616792e-018 -0.00288093)
(2.152322 -6.653117e-019 -0.001679835)
(2.148452 0 -0.002135949)
(2.002141 -1.70827e-018 0.1700156)
(2.134763 0 -0.02106204)
(2.147603 0 -0.002304506)
(2.147152 0 -0.002585472)
(2.043656 0 0.1577592)
(2.146713 0 -0.002866834)
(2.024452 4.917792e-018 0.1279739)
(2.032973 0 0.1365594)
(0.2485871 0 0.02154966)
(2.0421 0 0.163562)
(0.7983803 0 0.06881313)
(1.453205 0 0.1237818)
(2.042426 2.466851e-018 0.1476981)
(1.853812 0 0.1548297)
(1.955276 -4.027184e-019 -0.03693486)
(2.007035 6.609573e-018 0.1119753)
(2.003874 4.180645e-018 0.1619295)
(2.046766 0 0.1533183)
(1.93606 -1.460129e-020 0.05214186)
(1.931704 0 -0.002167902)
(2.03861 0 -0.1244634)
(2.875979 0 -0.006397102)
(3.618432 -2.957201e-020 -0.007699966)
(2.218282 2.060131e-020 -0.002710613)
(2.14623 -2.016239e-020 -0.00137741)
(2.14233 -6.432454e-019 -0.001687045)
(2.141508 -6.409138e-019 -0.001621589)
(2.141103 0 -0.001600818)
(2.140759 4.912814e-023 -0.00158251)
(2.044043 -1.746107e-018 0.1562017)
(0.2445758 0 0.0194583)
(2.045494 0 0.1440568)
(0.7873258 -1.374373e-018 0.06247913)
(2.139432 -9.401794e-020 -0.001572822)
(2.029543 -3.300937e-018 0.1237693)
(2.120498 0 -0.02175105)
(1.444047 -5.285586e-018 0.1137271)
(1.851065 2.138932e-018 0.1436125)
(1.710351 -4.187093e-018 -0.1211532)
(2.03824 -8.63916e-021 0.1314482)
(2.13705 -4.772655e-023 -0.001486498)
(2.04894 2.886584e-018 0.1471507)
(1.674555 -7.073859e-018 -0.08744238)
(2.003966 0 0.15169)
(1.755498 0 -0.1371073)
(2.098295 4.849644e-021 -0.04505569)
(2.134615 0 -0.00150881)
(1.975806 -3.837044e-018 0.08639031)
(1.821259 4.628948e-018 -0.05052565)
(2.044266 0 0.1477944)
(2.901714 0 -0.006443447)
(3.639203 0 -0.007697938)
(2.21406 0 -0.002555796)
(2.140555 0 -0.001099588)
(2.136632 2.591248e-018 -0.00127482)
(2.047545 -1.878078e-022 0.1389754)
(2.135842 -2.055823e-020 -0.0009942145)
(0.2313553 0 0.01715251)
(2.13548 -6.409138e-019 -0.0007025152)
(0.7741326 0 0.05749649)
(2.135102 0 -0.0003703254)
(1.431877 0 0.1060256)
(1.953443 0 -0.01738921)
(2.062449 -1.602772e-018 -0.08093521)
(1.989888 3.286594e-018 0.09260082)
(1.845765 0 0.1351993)
(2.001197 0 -0.1272175)
(2.05003 2.143632e-018 0.1404877)
(2.01865 0 0.1050113)
(2.005526 0 0.1439274)
(1.985477 9.257991e-018 -0.03462201)
(2.034103 0 0.1186179)
(2.127788 5.675453e-019 -0.00183031)
(2.042875 -1.791433e-018 0.1411053)
(2.04905 0 0.1339441)
(2.042704 -3.570223e-018 0.1249754)
(1.831539 -5.446375e-018 -0.1358737)
(2.927695 0 -0.006495736)
(3.66036 -9.707531e-019 -0.007703481)
(2.210197 -2.007843e-018 -0.002412231)
(2.135249 -1.963169e-018 -0.000846303)
(2.131307 0 -0.0009035236)
(2.13055 2.606414e-018 -0.0004363616)
(2.130237 0 8.327995e-005)
(2.050322 0 0.1345201)
(2.129941 0 0.0006400665)
(2.004321 -2.006295e-018 0.09044332)
(0.2235208 0 0.01428533)
(0.7516753 -1.197371e-018 0.04857925)
(1.984377 2.44766e-019 -0.03367779)
(2.128801 0 0.001736595)
(1.413648 -1.287715e-018 0.09205982)
(1.838391 0 0.1199025)
(2.126789 0 0.00281564)
(2.049856 3.004963e-019 0.1290937)
(2.117545 -4.541118e-023 -0.001682332)
(2.007381 1.720187e-018 0.1306615)
(1.955384 1.035523e-018 -0.008334671)
(2.12458 2.357207e-018 0.003868939)
(2.038369 0 0.113371)
(2.049234 0 0.1289784)
(0.2207547 0 0.01311169)
(0.7368073 -5.334119e-019 0.04441686)
(2.953883 0 -0.006550551)
(3.681909 3.961507e-018 -0.007713112)
(2.20672 -2.075071e-020 -0.002274344)
(2.130289 -1.347566e-018 -0.0006032695)
(2.126325 0 -0.0005490745)
(1.40034 -6.153534e-019 0.08561703)
(2.125592 0 9.508877e-005)
(2.125308 -6.553792e-019 0.0008311166)
(1.832537 -9.797942e-019 0.1130579)
(2.124997 0 0.001599338)
(2.050347 3.016623e-018 0.1246277)
(1.998853 1.095973e-018 0.1233887)
(1.975367 2.403572e-019 -0.02596494)
(2.045809 0 0.1181432)
(1.978771 0 0.06608322)
(2.027473 -9.044824e-018 0.09724315)
(2.047861 9.64371e-021 0.1243636)
(0.2172999 0 0.01212929)
(2.014883 0 0.08615796)
(0.7298207 0 0.04135664)
(1.95319 1.460129e-020 0.01326401)
(2.106852 -5.905479e-019 -0.001952367)
(1.990961 0 0.07381284)
(1.393394 -7.911897e-021 0.08041445)
(1.830645 -1.517441e-018 0.1073644)
(2.980292 0 -0.006602022)
(3.703818 3.983131e-018 -0.007725122)
(2.050955 6.42863e-019 0.1209471)
(2.203579 0 -0.002146881)
(2.125656 -6.634465e-019 -0.0003721514)
(2.121669 0 -0.0002106268)
(2.001721 0 0.1182091)
(2.120954 -1.206156e-018 0.0006016549)
(1.891592 0 -0.1145814)
(2.120698 1.315095e-018 0.001543564)
(2.120453 0 0.002537544)
(2.041476 0 0.1075416)
(2.11949 -5.243309e-020 0.00447178)
(2.048615 6.653251e-019 0.1198086)
(2.117802 0 0.00632631)
(0.2093102 0 0.01043448)
(1.775023 -6.135256e-020 -0.07662446)
(1.972374 5.542804e-019 -0.01543637)
(0.7181268 1.201596e-018 0.0369874)
(1.755273 0 -0.05348072)
(1.966449 6.577846e-018 0.03924459)
(2.002572 -6.022639e-018 0.07301616)
(1.382221 -1.878658e-018 0.0735125)
(1.800452 0 -0.08676656)
(2.116028 8.259928e-018 0.008002753)
(1.82584 -2.404463e-018 0.09981627)
(2.052175 0 0.1175866)
(2.069781 0 -0.03886405)
(2.048456 -4.520573e-018 0.1122996)
(1.868885 0 -0.03029181)
(2.002167 2.774555e-020 0.1116617)
(3.006908 0 -0.006657798)
(3.726038 0 -0.007743966)
(2.200725 0 -0.002028375)
(2.121331 0 -0.0001552975)
(2.117317 -6.65786e-019 0.0001071451)
(2.116616 0 0.001077743)
(2.116381 -6.786191e-019 0.002211006)
(2.116113 -5.14647e-021 0.00340216)
(2.049584 -5.560299e-020 0.1149151)
(1.991927 0 -0.02220902)
(2.110963 4.130058e-018 0.01076376)
(0.2023037 0 0.009831686)
(0.7001988 0 0.03525178)
(1.361576 0 0.070853)
(2.053674 2.173624e-019 0.1137422)
(1.813424 0 0.0968666)
(2.023162 3.694745e-018 0.08020104)
(2.044543 -4.662441e-021 0.1026047)
(1.998674 -1.537016e-018 0.1085403)
(1.970751 1.108517e-018 -0.009143539)
(2.011917 3.213462e-018 0.07107884)
(3.033694 0 -0.006719989)
(3.748556 0 -0.007769381)
(2.198163 0 -0.001915662)
(2.117288 0 4.837974e-005)
(2.113244 -1.336305e-018 0.0004018676)
(2.112551 -1.338924e-018 0.00151442)
(2.034603 -2.768142e-018 0.0887157)
(1.99127 0 -0.02219338)
(2.050043 0 0.1115678)
(2.112335 1.318119e-018 0.002816868)
(2.112123 0 0.004193547)
(2.103329 0 0.01309585)
(2.111274 2.599991e-018 0.006884131)
(0.1970409 0 0.009485422)
(0.6862939 -3.843901e-019 0.03421301)
(2.051709 -3.500508e-022 0.1067326)
(1.344457 -2.327728e-018 0.06909891)
(2.055129 0 0.1104546)
(2.109791 2.602467e-018 0.009441274)
(1.802529 3.391828e-018 0.09472355)
(2.085131 -1.894392e-023 -0.002507738)
(1.995206 -8.473425e-019 0.1061778)
(2.108154 0 0.01178331)
(2.050317 0 0.1088397)
(1.985781 0 -0.0187242)
(3.060642 0 -0.006786562)
(3.771362 4.429102e-020 -0.007798757)
(2.195884 2.117055e-020 -0.001805307)
(2.11351 -6.551791e-019 0.000245723)
(2.109431 0 0.0006853185)
(2.108739 0 0.001934496)
(2.108531 0 0.003402695)
(2.1083 0 0.004918991)
(0.1917742 0 0.009168367)
(2.048129 0 0.09712598)
(0.6718313 -1.441254e-018 0.03352192)
(2.056454 -8.388103e-019 0.1073208)
(2.095225 0 0.01483381)
(1.326125 5.920765e-024 0.06830428)
(1.79009 -3.961991e-019 0.09389168)
(1.990125 0 0.1051658)
(2.01912 0 0.06614188)
(2.04964 0 0.1071359)
(1.968094 2.191481e-018 0.01275138)
(2.03007 0 0.07313899)
(2.055485 0 0.1004691)
(2.045209 0 0.08713635)
(3.087733 0 -0.006851547)
(3.794458 5.484107e-020 -0.007829264)
(2.1939 -2.124725e-020 -0.001701825)
(2.109986 -4.229638e-020 0.0004320172)
(2.105873 -1.347483e-018 0.0009533038)
(2.105183 -6.848201e-019 0.002334586)
(1.983237 0 -0.01307753)
(0.183645 0 0.008917561)
(2.104982 0 0.003966655)
(0.6523111 3.086991e-019 0.03345481)
(2.104798 1.334832e-018 0.005680221)
(2.057421 0 0.1047293)
(1.303365 5.92752e-019 0.06902824)
(2.104055 2.674904e-018 0.009018041)
(1.774526 -1.26359e-019 0.0949944)
(1.9828 5.795173e-021 0.1061774)
(2.102748 0 0.01220559)
(1.987869 0 0.04423458)
(1.822329 0 -0.04936821)
(1.811322 -2.783257e-018 -0.03469718)
(2.101398 2.39447e-018 0.01514132)
(1.83735 -2.535651e-018 -0.0583245)
(2.047963 1.432876e-018 0.1069917)
(2.052137 0 0.09140167)
(1.900738 2.789305e-018 -0.02015408)
(2.041515 4.410117e-018 0.07954409)
(0.1700665 0 0.008956588)
(2.058383 0 0.1030058)
(0.6248287 0 0.03478309)
(3.114989 0 -0.006911514)
(3.817819 0 -0.007860046)
(2.192159 0 -0.001608791)
(2.106705 0 0.0006041824)
(2.102561 -2.639073e-021 0.001201816)
(2.101871 0 0.002707872)
(2.101676 1.349853e-018 0.004493854)
(1.275916 0 0.07273536)
(2.101465 -6.642059e-019 0.006348911)
(1.973309 -1.251508e-018 0.0003166788)
(1.757179 0 0.09994463)
(2.097527 0 0.02007117)
(1.99512 -2.268038e-023 -0.01519376)
(1.975398 -1.076478e-018 0.1110397)
(1.981425 0 -0.009642775)
(1.981619 2.925127e-023 0.03337066)
(2.00108 -1.97223e-021 0.048495)
(2.048643 2.1999e-018 0.08276183)
(2.047369 0 0.1093567)
(1.870431 0 -0.06606508)
(2.059299 0 0.09432725)
(0.1632394 0 0.01034036)
(2.060501 0 0.1022322)
(1.994727 0 -0.01544494)
(0.6088077 -1.782268e-018 0.03888113)
(2.062778 0 -0.003165005)
(1.258945 -3.647291e-018 0.07980917)
(2.025617 0 0.06097613)
(2.091634 0 0.02387983)
(3.142409 0 -0.006975409)
(3.841411 -3.408809e-025 -0.007895222)
(2.190622 0 -0.001520235)
(2.103653 2.721124e-018 0.0007668385)
(2.099477 0 0.001433341)
(2.098786 -2.646661e-021 0.003051293)
(1.747397 -5.250748e-018 0.1080928)
(2.098597 0 0.004973588)
(2.098425 0 0.006996045)
(1.961643 0 -0.08002284)
(1.973963 0 0.1183818)
(2.09775 0 0.01094163)
(2.045249 2.002184e-018 0.07480676)
(2.05584 -2.046055e-019 0.08502635)
(2.096571 0 0.01470475)
(2.050573 0 0.1123208)
(2.095258 0 0.01818741)
(2.03605 -4.738698e-018 0.06524524)
(1.991341 -2.697939e-019 -0.01386717)
(2.065569 -1.055326e-018 0.1010464)
(0.1706763 0 0.01149055)
(0.6283835 -9.697773e-019 0.04069607)
(1.271707 -2.483724e-018 0.07947021)
(2.085334 -1.087619e-022 0.02613626)
(2.008679 2.699357e-021 -0.05320342)
(1.755468 8.223537e-018 0.1054383)
(1.986058 0 -0.08065516)
(3.169962 0 -0.007046434)
(3.865244 0 -0.007934171)
(2.189321 1.427566e-018 -0.001428093)
(2.100817 1.366906e-018 0.0009309921)
(2.096607 0 0.00166319)
(2.065773 0 0.09390665)
(2.095912 0 0.003388542)
(1.986484 0 0.1147426)
(2.095721 0 0.005444315)
(2.095526 0 0.007561432)
(2.051972 0 0.07690115)
(1.90451 0 -0.06093937)
(2.053978 0 0.1068769)
(2.062384 0 0.08765277)
(2.067957 4.73824e-020 0.09454348)
(1.9894 -9.15485e-020 -0.01061427)
(2.047952 -5.024327e-023 0.06927705)
(2.065868 0 0.08856701)
(0.1845872 0 0.006578226)
(3.197634 0 -0.007115157)
(3.889329 -2.260622e-020 -0.007972545)
(2.188274 -4.344083e-020 -0.001338454)
(2.098187 -2.135791e-020 0.001092438)
(2.057827 1.252276e-020 0.07765487)
(2.093945 1.361524e-018 0.001889067)
(2.093248 -3.254117e-020 0.003719559)
(0.6455774 2.626697e-018 0.02373474)
(2.093057 0 0.005908047)
(2.092894 -1.347108e-018 0.008203566)
(1.274584 -2.129377e-020 0.04811976)
(2.062689 -1.018413e-018 0.08256417)
(1.749784 -4.571938e-018 0.06730399)
(2.092276 -6.683215e-019 0.01266925)
(2.01326 1.463338e-021 0.04531428)
(1.986538 0 0.08066786)
(2.091205 1.281566e-021 0.01693725)
(2.060168 -1.499359e-018 0.0818856)
(2.030763 -3.159072e-018 0.05398802)
(1.857983 0 -0.03152017)
(1.851736 4.797506e-018 -0.022836)
(2.090095 -2.395558e-018 0.02091516)
(1.867542 0 -0.03650602)
(1.978889 0 0.003515102)
(0.1661517 0 0.002804625)
(2.053821 1.944378e-018 0.07007886)
(2.061246 2.313813e-018 0.0796339)