
5490
(
-4.604369e-033
-2.704118e-033
-5.409383e-034
-2.443628e-032
-5.015782e-032
-1.139772e-033
-1.675554e-034
-1.240777e-034
-3.329694e-035
-2.194838e-035
-1.022672e-054
-1.84213e-031
-3.731219e-031
-9.182612e-056
-7.458213e-034
-1.231788e-053
-1.3999e-056
-6.360236e-035
-2.353404e-052
-9.561202e-036
-3.935921e-051
-2.227659e-050
-3.292027e-030
-1.651561e-030
-8.681228e-041
-2.281342e-037
-1.481654e-036
-3.111735e-037
-4.025059e-037
-9.67775e-037
-8.136205e-056
-1.110151e-056
-9.899054e-055
-1.252027e-053
-1.581696e-052
-1.902196e-049
-5.73025e-050
-4.889828e-050
-3.571121e-029
-1.795019e-029
-8.240218e-041
-1.926086e-039
-2.907415e-038
-2.889781e-051
-3.33278e-039
-3.455311e-049
-1.343923e-048
-1.299352e-037
-6.244022e-049
-4.907748e-050
-1.540281e-039
-3.503784e-038
-1.128441e-037
-5.844185e-028
-2.936695e-028
-1.416822e-043
-4.56343e-042
-4.372326e-041
-1.68226e-057
-1.546624e-056
-2.523285e-055
-4.082891e-054
-8.543218e-040
-1.969831e-048
-6.357696e-053
-4.33869e-039
-5.281065e-049
-1.575354e-051
-6.13008e-041
-1.183354e-048
-1.885454e-039
-1.866734e-026
-9.381152e-027
-8.069127e-043
-9.656969e-042
-1.233985e-042
-3.492578e-050
-3.73921e-048
-1.995402e-042
-3.248166e-047
-7.551315e-039
-4.62104e-049
-3.859901e-058
-3.671768e-057
-6.526263e-056
-1.204321e-054
-2.197288e-053
-2.233091e-024
-9.779352e-024
-4.740626e-023
-1.727666e-022
-4.949792e-022
-6.802877e-052
-2.093933e-047
-8.634979e-039
-3.321909e-021
-1.831045e-050
-5.241102e-047
-7.897286e-036
-5.662063e-024
-2.796723e-023
-1.497398e-022
-2.812077e-049
-5.889301e-022
-1.747077e-021
-5.448594e-036
-2.107921e-020
-4.398834e-033
-7.679998e-059
-7.075031e-058
-1.28744e-056
-2.527622e-055
-1.07915e-020
-5.087658e-054
-7.029215e-046
-1.869212e-052
-4.636185e-040
-6.107174e-051
-1.216004e-023
-5.146502e-023
-2.624167e-022
-1.017335e-021
-3.815162e-020
-5.871609e-033
-2.931248e-021
-6.065722e-046
-1.368231e-047
-1.674121e-020
-1.107233e-049
-8.893565e-046
-3.772887e-059
-3.350386e-040
-3.466506e-058
-7.224155e-020
-6.427621e-057
-1.313342e-055
-4.331102e-023
-1.087179e-022
-4.173372e-022
-1.393467e-021
-2.809039e-054
-3.539526e-021
-1.141103e-052
-3.716022e-019
-1.939188e-020
-4.197236e-051
-1.184185e-044
-4.330268e-046
-8.839738e-050
-7.515404e-020
-1.19192e-022
-2.14221e-022
-6.381561e-022
-1.854468e-021
-1.23749e-044
-4.270857e-021
-1.127571e-044
-2.078106e-044
-2.014167e-020
-1.999668e-059
-1.797341e-058
-3.326128e-057
-6.897579e-056
-1.524086e-054
-5.818587e-019
-6.630515e-053
-5.887042e-048
-7.769573e-020
-2.683881e-051
-1.744196e-022
-2.617668e-022
-7.340668e-022
-3.103184e-021
-6.591277e-021
-6.091773e-050
-8.994208e-020
-8.872103e-045
-1.626212e-019
-2.771679e-044
-2.393861e-046
-5.080363e-022
-4.598057e-022
-8.049366e-022
-5.620844e-021
-1.914627e-019
-1.260801e-059
-1.1218e-058
-2.076294e-057
-4.358113e-056
-9.874173e-055
-3.391705e-017
0.06246506
-4.514925e-053
-1.957177e-051
0.02228823
-4.987336e-050
-1.49722e-021
-1.125833e-021
-1.652329e-021
-6.337374e-020
-3.233901e-019
-9.816143e-036
-3.734467e-017
-5.838133e-045
-7.17274e-033
-1.628797e-044
-4.165619e-048
0.03070527
-8.216138e-060
-7.189048e-059
-1.318685e-057
-2.765808e-056
-6.320053e-055
-2.975394e-053
0.1381111
-1.080741e-021
-7.907718e-022
-1.225362e-021
-6.340021e-020
-1.354197e-051
2.621332e-018
0.02480409
-3.54611e-050
-1.25199e-038
-2.090126e-046
-8.245655e-019
0.2001414
-1.240494e-044
0.3354835
0.3276875
0.3044416
0.2784313
0.2838609
-1.211912e-044
0.3950477
-5.747081e-060
-5.067238e-059
-9.378259e-058
-1.99728e-056
-4.67012e-055
-2.285468e-053
-1.095293e-051
0.5767284
-6.448862e-045
0.5639233
-3.162257e-050
0.8355393
0.8276289
0.8037468
0.7767449
0.7823485
0.8710885
-1.787746e-038
-3.164716e-048
0.9364443
0.278985
-3.803054e-060
-3.386281e-059
-6.372735e-058
-1.389115e-056
-3.347884e-055
-1.712854e-053
0.999998
0.9999954
0.9999178
0.999647
-8.668175e-052
0.9996624
-1.902176e-046
0.9999923
-2.554935e-050
-1.144481e-047
0.9999922
0.9499
0.9999965
0.9999915
0.9999871
0.99999
-6.620732e-045
0.999983
-9.340059e-045
-2.546168e-060
-2.238663e-059
-4.320385e-058
-9.7924e-057
0.9999687
-2.484557e-055
-1.365929e-053
-2.260357e-047
-7.567481e-052
-3.97234e-048
0.9999784
-1.299524e-038
-2.58155e-050
0.9999984
0.9999959
0.9999803
0.9999633
-3.16625e-048
-1.729438e-036
0.7771587
0.9999497
-7.645115e-034
0.9999396
0.9986936
-2.325429e-060
-1.891718e-059
-3.600767e-058
0.9999583
-8.184808e-057
-2.106464e-055
-2.411804e-046
-1.1954e-053
1
-2.639979e-038
-6.947615e-052
0.9999768
1
-2.427374e-050
0.9999233
8.860636e-017
0.999966
0.999931
0.9999105
1
0.9999653
-1.155572e-044
0.9999348
0.999993
0.9999652
1
0.9999761
0.999979
0.9999873
-3.556591e-048
0.9999979
-6.035251e-047
0.9999788
-3.330246e-060
-2.600133e-059
-4.819912e-058
-1.07063e-056
-2.699738e-055
0.9999856
-1.51232e-053
1
-8.779553e-052
-1.832862e-043
0.9999901
0.9999943
-3.231737e-050
0.9999813
0.9999966
0.4011091
0.9999961
0.9999918
0.999998
0.9999873
0.9999958
0.9999916
-7.994224e-048
-4.251012e-048
-1.160405e-048
1
0.9999849
0.9999971
0.9981126
0.9999907
0.9999917
0.9999972
-3.402752e-046
0.9999959
0.999997
-1.69677e-044
0.9999944
0.9999895
-5.236682e-060
-4.014485e-059
-7.303172e-058
-1.587109e-056
-3.891661e-055
1
0.9999955
-2.10112e-053
0.999996
0.9999987
-1.159204e-051
0.9999909
-3.81464e-050
0.9999922
0.9999972
-1.560964e-044
0.9999977
0.9999907
0.9999958
1
0.9999969
0.9999988
0.9999953
0.9012145
0.9999935
0.999993
0.9999942
0.9999969
0.9999916
-8.385913e-060
-6.512043e-059
-1.196435e-057
-2.640103e-056
0.9999991
-6.627248e-055
0.9999989
-3.711834e-053
-2.211359e-047
0.999997
-2.155654e-051
0.9999994
0.9999959
-7.88841e-050
-1.775385e-043
0.9999974
0.999999
1
0.9999991
0.9999988
0.9999987
-1.126412e-047
0.9999973
0.9999991
-1.648766e-046
-1.636727e-037
0.9999989
0.9999973
0.9999971
-5.258425e-034
0.9999991
1
-1.022441e-045
0.9999993
0.9999976
0.9999992
-1.454065e-038
0.9999985
-1.255806e-059
-9.52882e-059
-1.725381e-057
0.999999
-3.773459e-056
-9.446923e-055
-5.325132e-053
0.9999994
-1.863016e-019
-3.144651e-051
0.9999988
-1.138982e-049
-5.855374e-044
0.9999993
0.9999992
0.9999975
1
0.9999998
0.9999987
0.9999997
0.9999982
0.9999994
0.9999974
0.9999996
0.9999971
0.9999978
0.9999993
0.9999974
0.4464839
0.9999981
-1.921789e-059
-1.406245e-058
0.9999997
-2.466764e-057
-5.231552e-056
1
-1.271298e-054
-6.98057e-053
0.9999996
-4.050631e-051
-1.514923e-049
0.9999977
-8.618895e-044
0.9999975
-5.654746e-047
0.9999993
0.999998
-2.117245e-047
0.9999994
0.9999999
0.9999993
-2.092358e-038
1
-1.861231e-045
1
0.9999996
-1.799138e-055
0.9999992
0.9999987
-3.07487e-059
-2.232554e-058
-3.840173e-057
-7.93941e-056
-1.866647e-054
0.9999992
0.9465879
0.9999994
-9.805957e-053
0.9999999
-9.684279e-044
-5.367232e-051
0.9999993
-1.787979e-049
0.9999997
0.9999986
0.9999994
1
1
0.9999987
1
0.9999996
0.9999996
-7.419422e-046
1
1
1
-4.788164e-059
-3.573633e-058
-6.227796e-057
-1.306951e-055
1
-3.135664e-054
0.9999991
-1.695608e-052
-9.639127e-051
0.9999995
-3.493672e-049
0.9999997
0.9999998
0.9999994
0.9999999
-5.128066e-047
1
0.9999999
1.000001
-4.544182e-056
-1.196487e-038
1.000002
0.9999993
-3.244788e-036
-4.868171e-045
-2.269195e-046
0.9999998
1.000001
0.9999998
-1.708407e-039
1
-2.936612e-043
-6.630114e-059
-4.917882e-058
-8.519512e-057
-5.804488e-020
-1.784629e-055
-4.298774e-054
1
-2.354087e-052
-1.368939e-050
0.9999991
1.000001
0.9999995
-4.947888e-049
0.9999996
-2.265213e-046
1.000002
0.9999996
0.9999994
1.000001
0.9999998
-2.856215e-043
1
0.9999995
0.4686513
0.9999994
1
0.9999998
1
-4.325101e-043
0.9999997
1
-8.936905e-059
-6.441075e-058
-1.085454e-056
-2.21298e-055
-5.191291e-054
-2.773979e-052
0.9999997
0.9999998
-1.582603e-050
0.9999997
-5.861738e-049
0.9999997
0.9999998
0.9999998
1
-8.552145e-047
0.9999998
1
0.9687396
-8.085254e-045
0.9999999
1
1
0.9999993
0.9999999
0.9999984
-4.669622e-043
0.9999998
-1.241879e-058
-8.935589e-058
-1.478986e-056
-2.944281e-055
-6.705015e-054
0.999999
-2.608403e-045
-3.451395e-052
-1.882616e-050
0.9999996
-6.372619e-049
0.9999999
0.9999997
1
0.9999998
1
0.9999991
0.9999995
0.9999982
1
0.9999999
0.9999989
0.9999993
0.9999999
0.9999998
-4.435205e-056
-1.644422e-058
-1.235955e-057
-2.076841e-056
-4.183502e-055
-9.644658e-054
-5.03374e-052
-2.783935e-050
-9.887595e-049
0.9999997
1
0.9999992
0.9999998
-1.465935e-046
0.9999999
-7.303813e-046
0.9999995
0.9999993
-7.742691e-040
0.9999998
-1.419612e-044
0.9999995
-3.399953e-033
0.9999996
-9.144593e-040
-6.972679e-062
-8.768739e-043
1
-1.464068e-020
0.9999998
-1.788825e-058
-1.401488e-057
-2.396757e-056
-4.910132e-055
-1.155501e-053
0.9999996
-6.197461e-052
1
-3.5474e-050
1
-1.268807e-048
1
0.9999999
-1.202438e-056
1
1
-1.971301e-046
0.9999999
0.9999999
1
0.4816979
0.9999999
-1.294086e-042
1
0.9999999
0.9999999
-1.346113e-039
-1.547187e-058
-1.250242e-057
-2.154955e-056
-4.434569e-055
-1.047361e-053
-5.635075e-052
-3.230716e-050
1
-1.196239e-048
1
1
1
0.9817719
-1.859726e-046
1
0.9999996
-1.907537e-044
0.9999999
-8.712089e-045
0.9999998
0.9999999
-1.215382e-042
1
1
1
1
-1.055457e-058
-9.083841e-058
-1.613807e-056
-3.41592e-055
-8.322174e-054
0.9999999
-4.644573e-052
-2.774452e-050
0.9999995
-1.03771e-048
0.9999999
0.9999998
1
0.9999999
1
1
1
1
0.9999999
1
0.9999999
-2.12658e-045
1
1
1
-3.745626e-059
-3.451437e-058
1
-6.364943e-057
-1.397424e-055
-3.54561e-054
1
-2.075252e-052
-1.818276e-044
-1.306974e-050
-5.36926e-049
1
-8.612476e-047
1
-9.141273e-045
1
-4.603418e-041
0.9999999
1
2.502837e-027
1
1
1.000001
-6.911973e-041
-6.321341e-043
1.000001
1
-7.492518e-062
0.9999999
-3.058101e-021
1.000001
-4.463485e-062
-3.267063e-061
-5.670459e-060
-1.202994e-058
-2.966904e-057
-1.695916e-055
-1.049161e-053
-4.10723e-052
1
0.4890874
-9.416387e-043
1
1.000001
1.000001
1
1.000001
1
0.9999999
1.000001
0.9999999
0.9999999
-6.099605e-062
-4.271935e-061
-7.149627e-060
-1.466293e-058
-3.502345e-057
-1.943344e-055
1
0.9891637
1
-1.173157e-053
-4.674614e-052
-1.249145e-044
-7.692782e-050
1
1.000001
1
1.000002
1
-8.527842e-048
1.000002
-1.163148e-061
1.000001
-5.99221e-046
1
1
-8.797165e-062
-6.009216e-061
-9.727692e-060
-1.922448e-058
-4.407876e-057
-2.336128e-055
-1.344285e-053
-4.918188e-052
1
0.9999999
1.000001
1
-2.91511e-045
1.000002
1.000002
1.000001
1
1
0.9999999
1
1
1
-1.26624e-061
-8.772932e-061
-1.413124e-059
-2.769068e-058
-6.288007e-057
-3.294225e-055
0.9999999
1
-1.870412e-053
1.000001
-6.985523e-052
1
1.000002
-1.105761e-049
1.000001
1.000001
-1.187381e-047
1
-2.731353e-042
4.474173e-027
-8.448851e-046
-3.703286e-041
1
1
-5.367824e-022
0.9999999
1
1
1.000001
-1.648977e-061
-1.137735e-060
-1.817184e-059
-3.534091e-058
-7.981854e-057
-4.169001e-055
-2.367346e-053
1.000001
-8.556204e-052
1
1.000001
-6.058091e-045
0.4930185
1.000001
0.9999999
1
1
0.9999999
1
-5.506337e-041
1
1
1
0.9931199
1.000001
-2.631647e-061
1.000002
1
-5.759708e-045
-2.068562e-061
-1.389931e-060
-2.16689e-059
-4.117194e-058
-9.090332e-057
-4.644202e-055
1.000002
-2.586838e-053
-9.539013e-052
-1.047729e-044
1.000001
-1.463742e-049
0.9999999
1
-1.529732e-047
1
-1.023619e-045
1
1
1
1
1.000001
1.000002
-1.260799e-045
-8.444504e-061
1.000002
-1.298357e-051
-2.66798e-061
-1.775941e-060
-2.710893e-059
-5.024713e-058
-1.078801e-056
1
-5.336699e-055
1.000001
-2.872275e-053
-9.860813e-052
0.9999999
-1.339509e-044
1.000001
1
1
1
0.9999999
1
1
-3.351637e-061
-2.297887e-060
-3.516726e-059
-6.500879e-058
1
-1.388961e-056
-6.817971e-055
1.000001
-3.628117e-053
-1.270303e-051
1.000001
1
1.000001
-1.895984e-049
1
1.000001
-1.924462e-047
1
1
-1.45948e-043
2.48711e-027
-1.295494e-045
-2.349069e-042
1
1
0.9999999
1
1
1.000001
-8.144351e-023
1.000001
1.000001
-3.627578e-061
-2.574753e-060
-3.982074e-059
-7.417826e-058
-1.598624e-056
1.000001
-7.931063e-055
1
-4.273124e-053
-1.906273e-045
-1.464276e-051
0.4949223
-1.433472e-060
1
0.9999999
1
1
1
1
1
1.000001
1
0.9950696
1.000001
-8.179347e-049
1.000001
1
-3.26793e-061
-2.380988e-060
-3.706082e-059
-6.925036e-058
-1.495624e-056
-7.427813e-055
-3.998155e-053
-1.414095e-051
1
-2.145517e-049
-2.217448e-047
1
1
1
1
1
1
1
-1.464583e-045
1.000001
-1.006047e-049
1.000001
1.000001
1
-2.474182e-061
-1.859554e-060
-2.95596e-059
-5.643951e-058
-1.249877e-056
1
-6.398149e-055
-3.563345e-053
1
-1.263098e-051
1
1
1
1
1
1
1.000001
1.000001
1.000001
1
1.000001
1
-4.4336e-061
-1.486371e-061
-9.706206e-061
-1.501472e-059
-2.853266e-058
-6.360038e-057
-3.315202e-055
1
-1.900352e-053
-7.25335e-052
-1.106217e-049
1
1
-1.160324e-047
1
1.000001
1
1.000002
-1.254525e-039
1
-8.192909e-046
1.000002
5.270001e-028
1
-7.541096e-042
1.000001
1
-5.377501e-020
1
1
-1.206812e-045
-1.713682e-061
-6.812779e-061
-8.273757e-060
-1.295846e-058
-2.373341e-057
-1.004072e-055
-4.677214e-054
0.4958803
-1.398037e-052
1
1
1
-1.125051e-041
1.000001
1
1.000002
1.000001
1.000001
0.9960848
-3.907352e-061
-2.337601e-049
1
1
-3.712025e-049
-4.439433e-061
-1.610249e-060
-1.894553e-059
-2.910429e-058
-5.236752e-057
-2.18834e-055
1
-1.022598e-053
-3.274161e-052
1
-3.503873e-050
1
1
1.000001
-2.578711e-048
1
1.000001
-1.415634e-050
1
1.000001
1
-1.122876e-046
1.000001
-3.53325e-041
1
1
1
-1.239239e-060
-3.87955e-060
-4.371877e-059
-6.549218e-058
-1.135449e-056
-4.463328e-055
1
-1.88947e-053
-4.964098e-052
1
1
1
1.000001
1.000001
1
0.9999999
1
1
1
1
-3.864533e-060
-9.645494e-060
-1.037156e-058
-1.571105e-057
-2.792415e-056
-1.151667e-054
-5.285702e-053
-1.642155e-051
0.9999999
1
1
1
-1.841952e-049
1.000001
-1.677658e-059
1.000001
-1.565206e-047
1
-1.391762e-038
-9.426379e-046
7.612176e-030
-1.362331e-041
1
1
1
-1.575286e-021
1
-5.207489e-065
-1.442775e-059
1
-1.383522e-045
-1.37673e-059
-2.410766e-059
-2.249097e-058
-3.293889e-057
-5.636081e-056
0.4966258
-2.219322e-054
-9.635974e-053
1
1
-2.68665e-051
1
1.000001
1.000001
0.9999999
1
1
-3.181637e-050
0.9968089
1
1
1
0.9999999
1
-5.606643e-059
-6.850612e-059
-5.197771e-058
1
-7.48159e-057
-1.260669e-055
-4.918761e-054
1.000001
-2.151635e-052
-6.467102e-051
1
1.000001
-2.922193e-054
1.000001
-6.080059e-049
1
1.000001
-4.190993e-047
-1.717377e-045
1
1
-1.144318e-059
1
1
-5.293991e-041
0.9999999
1
1.000001
-2.477381e-058
-2.19287e-058
-1.203767e-057
-1.691311e-056
-2.749208e-055
-1.010151e-053
1.000001
-4.00683e-052
1
-9.887686e-051
1.000001
1
1.000001
1
1
1
1
0.9999999
1
1.000001
1.000001
-1.140962e-057
-7.968825e-058
-2.856055e-057
-4.0559e-056
-6.753888e-055
-2.600295e-053
1.000001
-1.11624e-051
-3.250832e-050
1
-3.170817e-048
-2.510971e-046
1
1
1
1
-1.412444e-044
-2.746389e-038
6.278767e-033
1
-5.301125e-040
1
-3.861669e-025
1
1
1
-2.068284e-044
1
1
1.000001
0.4972286
1.000001
-5.325964e-057
-3.172513e-057
-6.215578e-057
-8.545236e-056
-1.371251e-054
-5.039548e-053
-2.042591e-051
1
-5.315275e-050
-7.736821e-040
1
-5.621503e-049
1
0.9973693
1
1
1
1
1
1.000001
1.000001
1
-3.693013e-054
-2.481423e-056
-1.361238e-056
-1.432317e-056
-1.938857e-055
-3.071676e-054
1
-1.122249e-052
-4.601172e-051
-1.296761e-049
-4.319878e-063
-1.047047e-047
1
1
-6.735172e-046
-2.219252e-055
-6.846262e-041
-2.57117e-044
1
1
1
1
0.9999999
1
1
1.000001
1.000001
1
-1.143082e-055
-6.002936e-056
-3.285785e-056
-4.340295e-055
-6.636809e-054
-2.287475e-052
-8.537943e-051
-1.990614e-049
1
0.9999999
1
1
1
0.9999999
-2.375436e-058
1
1
1.000001
1.000001
1
1
-5.185079e-055
-2.662812e-055
-7.716094e-056
-1.027103e-054
-1.602836e-053
-5.762291e-052
0.9999999
-2.31558e-050
-6.32924e-049
1
-5.370719e-047
-3.976467e-045
0.9999999
-2.102883e-043
-2.442453e-038
-1.7321e-059
4.583852e-035
0.9999998
0.9999999
-1.001498e-039
1
1
-9.137758e-026
1.000001
1.000001
-3.07625e-043
-8.070477e-047
1
0.4976445
-2.311539e-054
-1.17275e-054
-1.676878e-055
-2.160326e-054
-3.247516e-053
1
-1.113633e-051
0.9999998
-4.220483e-050
-1.029082e-048
0.9999999
-9.857133e-048
1
0.9977825
1
0.9999999
1
1
1
1.000001
-2.179778e-059
1.000001
1
1
-6.570173e-053
0.9999999
1
-1.01209e-053
-5.105284e-054
-3.848472e-055
-4.879354e-054
-7.241084e-053
-2.469156e-051
-9.470565e-050
-2.50179e-048
0.9999999
-1.790496e-046
1
-1.077649e-044
0.9999999
1
-3.832283e-043
1
1
1
1.000001
1.000001
1
0.9999998
1
1
-4.352049e-053
-2.188687e-053
-8.795896e-055
-1.086136e-053
-1.554219e-052
-5.000323e-051
-1.749289e-049
-3.839384e-048
1
1
1
1
1
1
1
1.000001
1
1
0.9999999
1
1
-1.838909e-052
-9.233467e-053
-2.069371e-054
-2.561065e-053
-3.719239e-052
-1.240643e-050
1
-4.645404e-049
-1.188288e-047
-9.149148e-046
0.9999999
1
-6.368309e-044
1
-3.180459e-042
1
-1.282982e-038
1.000001
0.9999998
9.015041e-037
-2.775591e-039
0.9999991
-2.038793e-026
0.9999998
-4.646913e-042
0.9999993
0.4980196
0.9999998
-7.642268e-052
-3.833865e-052
-4.600847e-054
-5.488911e-053
-7.647897e-052
-2.421603e-050
-8.500923e-049
-4.119131e-039
-1.923988e-047
-1.718368e-046
1
0.9981456
1
1
1
0.9999999
-1.051985e-051
1
1
1
0.9999996
0.9999988
0.9999994
1
-3.127807e-051
-1.568405e-051
-1.092124e-053
-1.276037e-052
-1.747846e-051
-5.483849e-050
-4.404584e-041
0.9999999
-1.945906e-048
-4.787472e-047
1
-3.074408e-045
-1.742743e-043
1
1
1
-5.809242e-042
1
1
1
0.9999999
1
1
0.9999998
0.9999994
0.9999996
0.9999999
1
-1.262778e-050
-6.33045e-051
-2.630991e-053
-2.97572e-052
-3.908902e-051
-1.149803e-049
-3.688046e-048
1
-7.409078e-047
-3.078041e-057
1
1
1
1
1
1
-2.319799e-061
0.9999999
-2.257813e-055
0.9999999
1
0.9999999
-5.038642e-050
-2.525567e-050
-6.653822e-053
-7.464928e-052
-9.857389e-051
-2.983892e-049
-1.023579e-047
-2.428199e-046
-1.560921e-044
-1.027856e-042
-4.878264e-041
1
1
1
-3.816966e-039
1
-2.900017e-036
1
-4.275185e-039
0.9999998
-5.53245e-017
1
-7.120232e-041
0.9999999
0.4983188
-5.433539e-058
0.9999999
1
-1.991193e-049
-9.979758e-050
-1.657448e-052
-1.778989e-051
-2.232316e-050
-6.317251e-049
-1.982993e-047
-3.990044e-046
-2.994309e-045
0.9984136
-5.478796e-041
1
1
1
0.9999999
1
0.9999997
0.9999993
-1.60926e-050
1
0.9999998
1
0.9999999
-7.810258e-049
-3.914265e-049
-4.465661e-052
-4.674796e-051
-5.753095e-050
-1.615862e-048
-5.187693e-047
-1.172789e-045
-5.227539e-044
1
-2.801506e-042
1
1
1
1
1
-8.922785e-041
0.9999997
1
1
0.9999992
1
1
1
0.9999995
1
0.9999997
-3.04671e-048
-1.526869e-048
-1.23447e-051
-1.244468e-050
-1.459275e-049
-3.799946e-048
-1.079355e-046
-1.898232e-045
1
1
1
1
0.9999998
0.9999997
0.9999996
0.9999999
0.9999996
1
1
1
1
-1.183857e-047
-5.932821e-048
-3.590317e-051
-3.568942e-050
-4.17756e-049
-1.113542e-047
-3.40462e-046
1
-7.350693e-045
0.9999999
1
-2.615055e-043
-1.615666e-041
-7.292051e-040
-7.877174e-040
-1.06654e-036
-2.403338e-039
-6.706636e-028
0.9999999
-1.062019e-039
1
0.9999998
0.4983948
-3.604771e-039
-4.586488e-047
-2.298452e-047
-1.041029e-050
-9.947649e-050
-1.106813e-048
1
-5.075573e-044
-2.729515e-047
-7.393899e-046
-1.252011e-044
1
1
0.9985144
0.9999998
1.000001
1
1
0.9999996
-2.143504e-049
-8.228002e-058
0.9999998
1
0.9999997
0.9999998
-9.438364e-042
-1.980666e-046
0.9999997
-1.771896e-046
-8.879508e-047
-3.158653e-050
-2.971534e-049
-3.279529e-048
1
-8.175496e-047
-2.344472e-045
1
-4.801114e-044
1
1
-8.67271e-043
1.000001
1
-4.28276e-041
0.9999995
-1.330259e-039
0.999999
0.9999994
1
0.9999998
-3.546327e-056
-6.821646e-046
-3.418506e-046
-9.528904e-050
-8.7001e-049
-9.20568e-048
-2.132722e-046
-5.362997e-045
1
-8.209411e-044
1
0.9999999
1.000001
1
0.9999992
0.9999988
0.9999998
1
0.9999995
0.9999998
1
0.9999998
1
-2.61361e-045
-1.309741e-045
-2.930095e-049
-2.655738e-048
-2.818954e-047
-6.724207e-046
1
-1.845057e-044
-3.616585e-043
1
-4.260404e-042
1
1
0.9999994
-2.329914e-040
-1.011726e-038
0.9999993
-1.0497e-057
1
1
1.109835e-038
-6.552489e-036
-3.075459e-040
0.9999998
1.640215e-025
-1.472563e-038
0.9999999
0.9999999
0.498761
-8.050453e-043
1
0.9999999
1
-9.946472e-045
-4.984381e-045
-8.789051e-049
-7.753998e-048
-7.915689e-047
-1.761995e-045
-4.264894e-044
1
-6.313101e-043
1
0.9988655
0.9999996
0.9999993
1
-2.694336e-048
0.9999997
1
0.9999999
0.9999999
1
1
1
1
1
1
-3.751703e-044
-1.880048e-044
-2.664043e-048
-2.337656e-047
-2.395574e-046
-5.483015e-045
-1.441679e-043
1
-2.708718e-042
-1.510126e-041
0.9999995
-5.933809e-040
0.9999989
-1.834918e-038
1
0.9999993
1
1
0.9999997
1
0.9999998
1
1
-1.399465e-043
-7.012952e-044
-7.832836e-048
-6.717194e-047
-6.650297e-046
-1.427724e-044
1
-3.324941e-043
-4.717222e-042
0.9999997
0.9999991
-1.132086e-059
0.9999999
0.9999993
-6.503032e-050
0.9999996
0.9999999
1
1
1
1
1
-5.152026e-043
-2.581759e-043
-2.307382e-047
-1.973755e-046
1
-1.968388e-045
-4.365458e-044
-1.110383e-042
-2.011713e-041
0.9999999
1
-7.765509e-041
-2.989708e-039
0.9999995
-1.256917e-037
0.9999996
-1.43114e-028
1.097904e-019
-1.413115e-031
0.9999999
0.9999996
0.0005495713
-1.828119e-037
0.500085
1
0.9999997
1
-3.768915e-033
1.000001
-1.14084e-041
1.000001
-1.868502e-042
-9.363329e-043
-6.549099e-047
-5.483309e-046
-5.293757e-045
1
-1.105326e-043
-2.509595e-042
0.9996007
-3.497873e-041
0.9999993
0.9999998
0.9999993
-2.969508e-047
0.9999999
1
0.9999995
0.9999998
1
-7.783351e-036
1
1
1.000001
1.000002
1
1.000001
1
-6.665955e-042
-3.340399e-042
-1.856072e-046
-1.551697e-045
-1.509499e-044
-3.251433e-043
-8.015983e-042
-1.402571e-040
0.9999991
-3.340032e-040
-7.20193e-039
1
0.9999988
-2.257559e-037
1
0.9999993
-3.336354e-055
0.9999998
1
1.000001
1.000001
1.000001
1
-2.336648e-041
-1.170924e-041
-5.050514e-046
-4.139869e-045
-3.907566e-044
-7.955449e-043
-1.764002e-041
-2.415299e-040
0.9999995
0.9999999
0.9999993
0.9999995
0.9999998
1
1
1
1.000001
1
-2.48075e-056
0.9999999
-8.041442e-041
-4.029663e-041
-1.367406e-045
-1.120672e-044
-1.066891e-043
-2.240521e-042
-5.373803e-041
0.9999998
-9.105047e-040
-1.817635e-039
-3.250902e-038
0.9999998
-2.241477e-036
0.9999999
-1.329916e-036
0.9999998
-1.512975e-028
-7.961768e-025
-1.576626e-031
-1.933346e-036
0.003760066
0.9999999
1
1
0.5044632
1
1
-1.366976e-040
0.9999992
1
-2.715579e-040
-1.360808e-040
-3.537993e-045
-2.846995e-044
1
-2.634931e-043
-5.251043e-042
0.9999987
-1.143155e-040
-1.550675e-039
0.9999999
0.9999996
-3.268675e-046
1
1
1
1
1
1
1.000001
1
1
0.9999981
0.9999975
-8.996699e-040
-4.508346e-040
-9.080314e-045
-7.314403e-044
-6.830316e-043
-1.401623e-041
-3.276455e-040
-5.383049e-039
-8.860692e-039
0.9999994
-7.252604e-038
-2.350955e-036
1
0.9999999
1
1
1
0.9999999
1
1
0.9999993
0.9999976
1
0.9999999
1
0.9999982
-2.924219e-039
-1.465358e-039
-2.216915e-044
-1.756761e-043
-1.598961e-042
-3.128382e-041
1
-6.703508e-040
-9.025917e-039
0.9999994
0.9999997
0.9999999
-3.698962e-056
1
1
1
0.999998
0.999997
-2.257742e-040
0.999999
-9.327374e-039
-4.674045e-039
-5.349713e-044
-4.250359e-043
-3.907336e-042
-7.863011e-041
1
-1.796169e-039
-2.864856e-038
-4.446979e-038
0.9999995
-2.780966e-037
0.9999996
-1.10804e-035
-8.901996e-029
1.348048e-018
-2.116694e-031
1
-1.608274e-035
0.00607107
0.9999998
1
1
1
0.9999989
1
0.9999981
0.5099771
-1.267776e-039
-8.017817e-033
1
0.9999998
1
0.9999992
-2.921012e-038
-1.46375e-038
-1.221552e-043
-9.563177e-043
-8.591898e-042
-1.657518e-040
-3.511615e-039
-4.713243e-038
0.9999998
-3.549354e-045
1
0.9999993
1
1
1
1
0.9999997
1
0.9999995
-1.400054e-035
1
1
1
0.9999996
-8.986891e-038
-4.503423e-038
-2.751734e-043
-2.16095e-042
-1.960238e-041
-3.879307e-040
-8.687323e-039
-1.350191e-037
-1.969428e-037
-5.53526e-037
1
0.9999996
-2.355065e-054
-1.90358e-035
0.9999998
1
1
1
1
1
0.9999998
0.9999998
0.9999997
-2.718547e-037
-1.362291e-037
-5.860789e-043
-4.538846e-042
-4.032656e-041
-7.692041e-040
-1.616738e-038
-2.169675e-037
0.9999997
1
1
1
-5.795159e-056
1.000001
1.000002
1.000001
0.9999999
0.9999999
0.9999998
-8.093027e-037
-4.055497e-037
-1.238295e-042
-9.60181e-042
-8.594667e-041
-1.674296e-039
-3.683728e-038
-5.600916e-037
-8.004506e-037
0.9999997
-1.583071e-036
-6.214764e-035
-1.00851e-028
-5.815803e-021
-4.905557e-058
1
0.9999998
-2.563894e-031
1.000001
-9.021011e-035
1.000003
0.006705075
1.000003
1
1.000001
-6.557041e-050
0.5109886
0.9999998
0.9999997
-7.769022e-039
0.9999996
1
1
-2.373217e-036
-1.189242e-036
-2.509827e-042
-1.912438e-041
-1.674641e-040
-3.150711e-039
-6.558381e-038
-8.767672e-037
0.9999997
-4.797269e-044
1
1
1.000002
1.000004
1.000003
0.9999998
1
0.9999985
0.9999987
-6.861156e-036
-3.438193e-036
-5.199655e-042
-3.926606e-041
-3.431967e-040
-6.523559e-039
-1.403781e-037
-2.091816e-036
-2.929735e-036
0.9999994
1
-2.671354e-036
-1.004753e-034
1
1.000002
1.000004
0.9999997
1
1
1
0.9999967
1
0.9999968
0.9999997
0.9999986
0.9999996
-1.957084e-035
-9.807141e-036
-1.091546e-041
-7.987795e-041
-6.752552e-040
-1.22657e-038
-2.475821e-037
-3.211078e-036
1
1.000001
1
0.9999969
0.999992
1
0.9999959
0.9999999
0.9999993
1
-5.510328e-035
-2.76128e-035
-2.494142e-041
-1.775565e-040
-1.471465e-039
1
-2.649855e-038
-5.458126e-037
-7.909095e-036
0.999999
-1.095453e-035
-4.303158e-036
1
-1.640142e-034
0.9999997
-1.653454e-029
7.577734e-019
1
1
1
0.9999999
1
-5.679529e-032
0.9999998
-2.378422e-034
0.9999992
0.006386171
0.999998
0.9999922
0.9999939
0.9999997
0.9999979
0.5117255
-2.323571e-038
-4.577966e-033
0.9999993
1
0.9999996
-1.531556e-034
-7.674778e-035
-6.116689e-041
-4.176635e-040
-3.304348e-039
-5.569599e-038
-1.041294e-036
-1.233984e-035
-5.72066e-043
1
1
1
1.000001
1
-6.5468e-036
0.9999988
0.9999984
1
0.9999991
0.9999991
-4.200522e-034
-2.104923e-034
-1.630472e-040
-1.085406e-039
-8.420847e-039
0.9999993
-1.408328e-037
1
-2.71578e-036
-1.254416e-053
-3.756047e-035
-5.157718e-035
-6.187013e-036
-2.147899e-034
1
0.9999997
1
1
0.9999995
0.9999984
0.9999985
0.9999998
0.9999991
0.9999991
0.9999998
-1.135812e-033
-5.691668e-034
-4.47518e-040
-2.892757e-039
-2.162711e-038
-3.394008e-037
-5.842698e-036
-6.217174e-035
1
-1.32069e-054
1
1
1
1
0.9999994
0.9999989
0.9999993
0.9999997
0.9999999
-2.305378e-036
0.9999996
0.9999995
0.9999996
-3.02374e-033
-1.515226e-033
-1.25287e-039
-8.004402e-039
-5.96454e-038
-9.498719e-037
-1.742057e-035
-2.298535e-034
-3.137651e-034
-1.058079e-035
0.9999998
1
0.9999999
-3.434032e-034
0.9999999
0.9999993
0.9999993
1
2.673968e-030
4.062628e-024
0.9999999
-3.485566e-032
-4.974164e-034
0.9999997
1
0.003479086
1
0.9999997
0.5088037
0.9999997
-9.574987e-038
1
-7.910996e-033
-3.964278e-033
-3.439959e-039
-2.150282e-038
-1.559346e-037
-2.356945e-036
-3.892751e-035
-3.951587e-034
-6.206286e-042
1
1
1
1
1
0.9999991
0.9999984
1
0.999999
0.9999992
1
0.9999992
1
-2.029774e-032
-1.01714e-032
-9.377468e-039
-5.811913e-038
-4.227323e-037
-6.541477e-036
-1.162678e-034
-1.4798e-033
-2.012277e-033
-2.517721e-035
1
0.9999997
1
1.000001
-4.505454e-034
1.000001
0.9999965
-1.566058e-054
0.9999949
0.9999983
0.9999988
-2.310255e-040
0.9999999
-5.095442e-032
-2.553376e-032
-2.474777e-038
-1.499529e-037
-1.064447e-036
-1.571596e-035
-2.540677e-034
-2.544814e-033
1
1.000001
1.000002
1.000001
0.9999946
1
0.9999925
0.9999984
0.9999993
1
0.9999993
1
1
-1.248462e-031
-6.256169e-032
-6.458253e-038
-3.870422e-037
-2.757696e-036
-4.16696e-035
-7.212755e-034
1
-8.891019e-033
0.9999999
1.000001
-1.204587e-032
1.000001
0.9999997
-1.173137e-034
0.9999993
0.9999959
-2.380237e-033
1
-4.280107e-032
4.937134e-024
0.9999958
-5.727126e-032
-3.441476e-033
0.001498833
0.999999
0.9999998
0.5067668
1
-8.146404e-037
-3.630544e-034
1
1
1
1
0.9999992
0.9999978
0.9999973
-2.97816e-031
-1.492386e-031
-1.628064e-037
-9.503569e-037
-6.618445e-036
-9.577977e-035
-1.520719e-033
-5.147316e-041
-1.507784e-032
1
-5.203603e-037
0.9999989
1
0.9999995
0.9999997
0.9999998
1
-1.004103e-052
-6.899508e-031
-3.457412e-031
-4.054454e-037
-2.327071e-036
-1.626673e-035
-2.407533e-034
-4.07163e-033
-4.875665e-032
-6.585944e-032
0.9999998
1
-4.077486e-034
0.9999998
0.9999996
-4.155883e-033
0.9999985
0.999997
0.9999978
0.9999995
-1.871813e-056
0.9999995
0.9999994
0.9999999
-5.073937e-052
1
1
-9.048233e-054
-1.54851e-030
-7.759739e-031
-9.769864e-037
-5.406204e-036
-3.69711e-035
-5.262203e-034
-8.241171e-033
-8.130973e-032
1
0.9999999
0.9999999
0.999999
1
0.9999963
1
0.9999965
0.9999991
0.9999996
0.9999995
0.9999998
0.9999999
1
0.9999999
-3.358578e-030
-1.683017e-030
-2.342546e-036
-1.250225e-035
-8.570779e-035
-1.246484e-033
0.9999999
-2.067006e-032
-2.412109e-031
0.9999999
0.9999994
-3.248759e-031
0.9999948
1
-1.731746e-033
1
-1.676671e-032
0.999993
-4.393975e-028
1
-7.315438e-022
0.9999976
-2.425513e-032
-2.060989e-031
0.0008436801
0.5060772
-5.717088e-036
1
0.9999999
0.9999999
1
0.9999995
0.9999969
-2.889536e-040
-7.021231e-030
-3.518409e-030
-5.537258e-036
-2.741917e-035
-1.834478e-034
-2.576401e-033
-3.997705e-032
-3.941028e-031
1
0.9999959
0.9999979
1
1
0.9999996
0.9999996
1
-1.410836e-029
-7.069842e-030
-1.351134e-035
-6.005391e-035
-3.990733e-034
-5.714445e-033
-9.330552e-032
0.9999996
-1.064975e-030
1
0.9999999
-1.430875e-030
0.9999998
-6.242037e-033
0.9999997
0.9999982
-2.816405e-032
0.9999987
0.9999985
0.9999992
0.9999998
1
0.9999999
-2.716562e-029
-1.361297e-029
-3.464853e-035
-1.262787e-034
-8.024707e-034
-1.111395e-032
0.9999998
-1.71755e-031
-1.698115e-030
0.9999999
0.9999953
0.9999999
1
0.9999922
0.999997
0.9999996
0.9999991
0.9999993
0.9999999
1
0.9999998
0.9999996
0.9999997
-4.995208e-029
-2.503152e-029
-9.850535e-035
-2.726606e-034
-1.643209e-033
-2.297885e-032
-3.715511e-031
0.9999999
-4.175146e-030
-5.599931e-030
0.9999917
-2.293931e-032
0.9999874
-7.567847e-032
0.9999961
1
0.9999994
-4.818086e-028
6.040108e-020
-1.094216e-031
-2.181774e-031
1
0.0008162691
0.5059927
-2.541967e-035
-3.802212e-035
1
1
0.9999998
-1.150139e-039
0.9999997
-8.737237e-029
-4.378332e-029
-3.088205e-034
-5.993404e-034
-3.160066e-033
-4.203631e-032
-6.500384e-031
0.9999994
-6.477541e-030
1
0.9999938
0.9999911
-7.323155e-038
0.9999967
1
0.9999991
1
0.999999
1
0.9999995
1.164014e-048
1
1
0.9999998
0.9999998
0.9999998
-1.447198e-028
-7.252115e-029
-1.04544e-033
-1.460875e-033
-6.355458e-033
0.9999987
-8.145777e-032
-1.306228e-030
-1.457487e-029
0.9999967
-1.954384e-029
1
-8.171354e-032
0.9999963
-1.175065e-031
0.9999977
0.9999988
1
0.9999998
1
-2.013642e-052
1
0.9999998
0.9999997
0.9999984
0.9999959
-2.258321e-028
-1.13169e-028
-3.625369e-033
-3.929298e-033
-1.280425e-032
0.9999998
-1.432044e-031
-2.189439e-030
-2.199159e-029
-6.376996e-038
0.9999961
0.9999985
0.9999992
1
0.9999996
0.9999997
0.9999996
0.9999998
0.9999985
0.9999953
0.9999998
1
0.9999998
-3.300491e-028
-1.653987e-028
-1.240342e-032
-1.171488e-032
-2.892087e-032
-2.72974e-031